 Entering Gaussian System, Link 0=g09
 Input=input_Electrodo_Au_3_benzene.gjf
 Output=input_Electrodo_Au_3_benzene.log
 Initial command:
 /home/palacios/Gaussian09/intel/v.D01/g09/l1.exe "/scratch/palacios/input_Electrodo_Au_3_benzene-202897/Gau-6697.inp" -scrdir="/scratch/palacios/input_Electrodo_Au_3_benzene-202897/"
 Entering Link 1 = /home/palacios/Gaussian09/intel/v.D01/g09/l1.exe PID=      6698.
  
 Copyright (c) 1988,1990,1992,1993,1995,1998,2003,2009,2013,
            Gaussian, Inc.  All Rights Reserved.
  
 This is part of the Gaussian(R) 09 program.  It is based on
 the Gaussian(R) 03 system (copyright 2003, Gaussian, Inc.),
 the Gaussian(R) 98 system (copyright 1998, Gaussian, Inc.),
 the Gaussian(R) 94 system (copyright 1995, Gaussian, Inc.),
 the Gaussian 92(TM) system (copyright 1992, Gaussian, Inc.),
 the Gaussian 90(TM) system (copyright 1990, Gaussian, Inc.),
 the Gaussian 88(TM) system (copyright 1988, Gaussian, Inc.),
 the Gaussian 86(TM) system (copyright 1986, Carnegie Mellon
 University), and the Gaussian 82(TM) system (copyright 1983,
 Carnegie Mellon University). Gaussian is a federally registered
 trademark of Gaussian, Inc.
  
 This software contains proprietary and confidential information,
 including trade secrets, belonging to Gaussian, Inc.
  
 This software is provided under written license and may be
 used, copied, transmitted, or stored only in accord with that
 written license.
  
 The following legend is applicable only to US Government
 contracts under FAR:
  
                    RESTRICTED RIGHTS LEGEND
  
 Use, reproduction and disclosure by the US Government is
 subject to restrictions as set forth in subparagraphs (a)
 and (c) of the Commercial Computer Software - Restricted
 Rights clause in FAR 52.227-19.
  
 Gaussian, Inc.
 340 Quinnipiac St., Bldg. 40, Wallingford CT 06492
  
  
 ---------------------------------------------------------------
 Warning -- This program may not be used in any manner that
 competes with the business of Gaussian, Inc. or will provide
 assistance to any competitor of Gaussian, Inc.  The licensee
 of this program is prohibited from giving any competitor of
 Gaussian, Inc. access to this program.  By using this program,
 the user acknowledges that Gaussian, Inc. is engaged in the
 business of creating and licensing software in the field of
 computational chemistry and represents and warrants to the
 licensee that it is not a competitor of Gaussian, Inc. and that
 it will not use this program in any manner prohibited above.
 ---------------------------------------------------------------
  

 Cite this work as:
 Gaussian 09, Revision D.01,
 M. J. Frisch, G. W. Trucks, H. B. Schlegel, G. E. Scuseria, 
 M. A. Robb, J. R. Cheeseman, G. Scalmani, V. Barone, B. Mennucci, 
 G. A. Petersson, H. Nakatsuji, M. Caricato, X. Li, H. P. Hratchian, 
 A. F. Izmaylov, J. Bloino, G. Zheng, J. L. Sonnenberg, M. Hada, 
 M. Ehara, K. Toyota, R. Fukuda, J. Hasegawa, M. Ishida, T. Nakajima, 
 Y. Honda, O. Kitao, H. Nakai, T. Vreven, J. A. Montgomery, Jr., 
 J. E. Peralta, F. Ogliaro, M. Bearpark, J. J. Heyd, E. Brothers, 
 K. N. Kudin, V. N. Staroverov, T. Keith, R. Kobayashi, J. Normand, 
 K. Raghavachari, A. Rendell, J. C. Burant, S. S. Iyengar, J. Tomasi, 
 M. Cossi, N. Rega, J. M. Millam, M. Klene, J. E. Knox, J. B. Cross, 
 V. Bakken, C. Adamo, J. Jaramillo, R. Gomperts, R. E. Stratmann, 
 O. Yazyev, A. J. Austin, R. Cammi, C. Pomelli, J. W. Ochterski, 
 R. L. Martin, K. Morokuma, V. G. Zakrzewski, G. A. Voth, 
 P. Salvador, J. J. Dannenberg, S. Dapprich, A. D. Daniels, 
 O. Farkas, J. B. Foresman, J. V. Ortiz, J. Cioslowski, 
 and D. J. Fox, Gaussian, Inc., Wallingford CT, 2013.
 
 ******************************************
 Gaussian 09:  ES64L-G09RevD.01 24-Apr-2013
                22-Dec-2020 
 ******************************************
 %mem=16gb
 %NProcShared=8
 Will use up to    8 processors via shared memory.
 %Subst L101 .
 %Subst L502 .
 ----------------------------------------------------------------------
 #p lsda/gen pseudo=read pop=min Scf=(conver=5,maxcycle=1000,dsymm,noda
 mp) opt(z-matrix,maxcycle=100,loose) nosymm
 ----------------------------------------------------------------------
 1/6=100,7=-1,10=7,14=-1,18=40,26=3,38=1/1,3;
 2/12=2,15=1,17=6,18=5,29=3,40=1/2;
 3/5=7,11=2,16=1,17=8,25=1,30=1,71=1,74=205/1,2,3;
 4//1;
 5/5=2,6=5,7=1000,17=200,18=-2,38=5/2;
 6/7=2,8=2,9=2,10=2,28=1/1;
 7/29=1,30=1/1,2,3,16;
 1/6=100,7=-1,10=7,14=-1,18=40,26=3/3(2);
 2/15=1,29=3/2;
 99//99;
 2/15=1,29=3/2;
 3/5=7,6=1,11=2,16=1,17=8,25=1,30=1,71=1,74=205,82=7/1,2,3;
 4/5=5,16=3,69=1/1;
 5/5=2,6=5,7=1000,17=200,18=-2,38=5/2;
 7/30=1/1,2,3,16;
 1/6=100,7=-1,14=-1,18=40,26=3/3(-5);
 2/15=1,29=3/2;
 6/7=2,8=2,9=2,10=2,19=2,28=1/1;
 99/9=1/99;
 Leave Link    1 at Tue Dec 22 12:09:51 2020, MaxMem=  2147483648 cpu:         0.4
 (Enter ./l101.exe)
 ----------------------------
 input_Electrodo_Au_3_benzene
 ----------------------------
 Symbolic Z-matrix:
 Charge =  0 Multiplicity = 1
 Au                    2.45707  -0.66195  -8.73991 
 Au                    0.14811   0.97608  -8.49918 
 Au                   -0.09549  -1.85133  -8.36314 
 Au                   -2.16077   2.61414  -8.25851 
 Au                   -2.40445  -0.2133   -8.12241 
 Au                   -2.64806  -3.04072  -7.98637 
 Au                    1.13641  -0.42757  -6.23529 
 Au                   -1.17255   1.21047  -5.99457 
 Au                   -1.41615  -1.61695  -5.85853 
 Au                   -0.18425  -0.19318  -3.73068 
 C                    -1.13096  -0.67288  -2.38489 
 C                    -1.10376   0.72582  -2.38489 
 H                    -2.07866  -1.19578  -2.38489 
 H                    -2.03046   1.28512  -2.38489 
 C                     0.06674  -1.39588  -2.38489 
 C                     0.12114   1.40172  -2.38489 
 H                     0.04574  -2.47798  -2.38489 
 C                     1.29174  -0.72008  -2.38489 
 C                     1.31894   0.67872  -2.38489 
 H                     0.14224   2.48382  -2.38489 
 H                     2.21834  -1.27938  -2.38489 
 H                     2.26664   1.20152  -2.38489 
 Au                   -0.07144  -0.03503  -0.99164 
 Au                   -1.49202   0.78514   1.32815 
 Au                    1.34914   0.78514   1.32815 
 Au                   -0.07144  -1.67537   1.32815 
 Au                   -2.9126    1.60531   3.64795 
 Au                   -0.07144   1.60531   3.64795 
 Au                   -1.49202  -0.8552    3.64795 
 Au                    2.76972   1.60531   3.64795 
 Au                    1.34914  -0.8552    3.64795 
 Au                   -0.07144  -3.31571   3.64795 
 
 NAtoms=     32 NQM=       32 NQMF=       0 NMMI=      0 NMMIF=      0
                NMic=       0 NMicF=      0.
                    Isotopes and Nuclear Properties:
 (Nuclear quadrupole moments (NQMom) in fm**2, nuclear magnetic moments (NMagM)
  in nuclear magnetons)

  Atom         1           2           3           4           5           6           7           8           9          10
 IAtWgt=         197         197         197         197         197         197         197         197         197         197
 AtmWgt= 196.9666000 196.9666000 196.9666000 196.9666000 196.9666000 196.9666000 196.9666000 196.9666000 196.9666000 196.9666000
 NucSpn=           3           3           3           3           3           3           3           3           3           3
 AtZEff=   0.0000000   0.0000000   0.0000000   0.0000000   0.0000000   0.0000000   0.0000000   0.0000000   0.0000000   0.0000000
 NQMom=   54.7000000  54.7000000  54.7000000  54.7000000  54.7000000  54.7000000  54.7000000  54.7000000  54.7000000  54.7000000
 NMagM=    0.1481590   0.1481590   0.1481590   0.1481590   0.1481590   0.1481590   0.1481590   0.1481590   0.1481590   0.1481590
 AtZNuc=  79.0000000  79.0000000  79.0000000  79.0000000  79.0000000  79.0000000  79.0000000  79.0000000  79.0000000  79.0000000

  Atom        11          12          13          14          15          16          17          18          19          20
 IAtWgt=          12          12           1           1          12          12           1          12          12           1
 AtmWgt=  12.0000000  12.0000000   1.0078250   1.0078250  12.0000000  12.0000000   1.0078250  12.0000000  12.0000000   1.0078250
 NucSpn=           0           0           1           1           0           0           1           0           0           1
 AtZEff=   0.0000000   0.0000000   0.0000000   0.0000000   0.0000000   0.0000000   0.0000000   0.0000000   0.0000000   0.0000000
 NQMom=    0.0000000   0.0000000   0.0000000   0.0000000   0.0000000   0.0000000   0.0000000   0.0000000   0.0000000   0.0000000
 NMagM=    0.0000000   0.0000000   2.7928460   2.7928460   0.0000000   0.0000000   2.7928460   0.0000000   0.0000000   2.7928460
 AtZNuc=   6.0000000   6.0000000   1.0000000   1.0000000   6.0000000   6.0000000   1.0000000   6.0000000   6.0000000   1.0000000

  Atom        21          22          23          24          25          26          27          28          29          30
 IAtWgt=           1           1         197         197         197         197         197         197         197         197
 AtmWgt=   1.0078250   1.0078250 196.9666000 196.9666000 196.9666000 196.9666000 196.9666000 196.9666000 196.9666000 196.9666000
 NucSpn=           1           1           3           3           3           3           3           3           3           3
 AtZEff=   0.0000000   0.0000000   0.0000000   0.0000000   0.0000000   0.0000000   0.0000000   0.0000000   0.0000000   0.0000000
 NQMom=    0.0000000   0.0000000  54.7000000  54.7000000  54.7000000  54.7000000  54.7000000  54.7000000  54.7000000  54.7000000
 NMagM=    2.7928460   2.7928460   0.1481590   0.1481590   0.1481590   0.1481590   0.1481590   0.1481590   0.1481590   0.1481590
 AtZNuc=   1.0000000   1.0000000  79.0000000  79.0000000  79.0000000  79.0000000  79.0000000  79.0000000  79.0000000  79.0000000

  Atom        31          32
 IAtWgt=         197         197
 AtmWgt= 196.9666000 196.9666000
 NucSpn=           3           3
 AtZEff=   0.0000000   0.0000000
 NQMom=   54.7000000  54.7000000
 NMagM=    0.1481590   0.1481590
 AtZNuc=  79.0000000  79.0000000
 Leave Link  101 at Tue Dec 22 12:09:52 2020, MaxMem=  2147483648 cpu:         0.5
 (Enter /home/palacios/Gaussian09/intel/v.D01/g09/l103.exe)

 GradGradGradGradGradGradGradGradGradGradGradGradGradGradGradGradGradGrad
 Berny optimization.
 Initialization pass.
 No Z-matrix variables, so optimization will use Cartesian coordinates.
 Trust Radius=3.00D-01 FncErr=1.00D-07 GrdErr=1.00D-06
 Number of steps in this run=    100 maximum allowed number of steps=    192.
 GradGradGradGradGradGradGradGradGradGradGradGradGradGradGradGradGradGrad

 Leave Link  103 at Tue Dec 22 12:09:54 2020, MaxMem=  2147483648 cpu:         0.1
 (Enter /home/palacios/Gaussian09/intel/v.D01/g09/l202.exe)
 ---------------------------------------------------------------------------------------------------
                            Z-MATRIX (ANGSTROMS AND DEGREES)
   CD    Cent   Atom    N1       Length/X        N2       Alpha/Y        N3        Beta/Z          J
 ---------------------------------------------------------------------------------------------------
      1      1  Au       0   2.457070         -0.661950         -8.739910
      2      2  Au       0   0.148110          0.976080         -8.499180
      3      3  Au       0  -0.095490         -1.851330         -8.363140
      4      4  Au       0  -2.160770          2.614140         -8.258510
      5      5  Au       0  -2.404450         -0.213300         -8.122410
      6      6  Au       0  -2.648060         -3.040720         -7.986370
      7      7  Au       0   1.136410         -0.427570         -6.235290
      8      8  Au       0  -1.172550          1.210470         -5.994570
      9      9  Au       0  -1.416150         -1.616950         -5.858530
     10     10  Au       0  -0.184250         -0.193180         -3.730680
     11     11  C        0  -1.130960         -0.672880         -2.384890
     12     12  C        0  -1.103760          0.725820         -2.384890
     13     13  H        0  -2.078660         -1.195780         -2.384890
     14     14  H        0  -2.030460          1.285120         -2.384890
     15     15  C        0   0.066740         -1.395880         -2.384890
     16     16  C        0   0.121140          1.401720         -2.384890
     17     17  H        0   0.045740         -2.477980         -2.384890
     18     18  C        0   1.291740         -0.720080         -2.384890
     19     19  C        0   1.318940          0.678720         -2.384890
     20     20  H        0   0.142240          2.483820         -2.384890
     21     21  H        0   2.218340         -1.279380         -2.384890
     22     22  H        0   2.266640          1.201520         -2.384890
     23     23  Au       0  -0.071440         -0.035030         -0.991640
     24     24  Au       0  -1.492020          0.785140          1.328150
     25     25  Au       0   1.349140          0.785140          1.328150
     26     26  Au       0  -0.071440         -1.675370          1.328150
     27     27  Au       0  -2.912600          1.605310          3.647950
     28     28  Au       0  -0.071440          1.605310          3.647950
     29     29  Au       0  -1.492020         -0.855200          3.647950
     30     30  Au       0   2.769720          1.605310          3.647950
     31     31  Au       0   1.349140         -0.855200          3.647950
     32     32  Au       0  -0.071440         -3.315710          3.647950
 ---------------------------------------------------------------------------------------------------
                         Z-Matrix orientation:                         
 ---------------------------------------------------------------------
 Center     Atomic      Atomic             Coordinates (Angstroms)
 Number     Number       Type             X           Y           Z
 ---------------------------------------------------------------------
      1         79           0        2.457070   -0.661950   -8.739910
      2         79           0        0.148110    0.976080   -8.499180
      3         79           0       -0.095490   -1.851330   -8.363140
      4         79           0       -2.160770    2.614140   -8.258510
      5         79           0       -2.404450   -0.213300   -8.122410
      6         79           0       -2.648060   -3.040720   -7.986370
      7         79           0        1.136410   -0.427570   -6.235290
      8         79           0       -1.172550    1.210470   -5.994570
      9         79           0       -1.416150   -1.616950   -5.858530
     10         79           0       -0.184250   -0.193180   -3.730680
     11          6           0       -1.130960   -0.672880   -2.384890
     12          6           0       -1.103760    0.725820   -2.384890
     13          1           0       -2.078660   -1.195780   -2.384890
     14          1           0       -2.030460    1.285120   -2.384890
     15          6           0        0.066740   -1.395880   -2.384890
     16          6           0        0.121140    1.401720   -2.384890
     17          1           0        0.045740   -2.477980   -2.384890
     18          6           0        1.291740   -0.720080   -2.384890
     19          6           0        1.318940    0.678720   -2.384890
     20          1           0        0.142240    2.483820   -2.384890
     21          1           0        2.218340   -1.279380   -2.384890
     22          1           0        2.266640    1.201520   -2.384890
     23         79           0       -0.071440   -0.035030   -0.991640
     24         79           0       -1.492020    0.785140    1.328150
     25         79           0        1.349140    0.785140    1.328150
     26         79           0       -0.071440   -1.675370    1.328150
     27         79           0       -2.912600    1.605310    3.647950
     28         79           0       -0.071440    1.605310    3.647950
     29         79           0       -1.492020   -0.855200    3.647950
     30         79           0        2.769720    1.605310    3.647950
     31         79           0        1.349140   -0.855200    3.647950
     32         79           0       -0.071440   -3.315710    3.647950
 ---------------------------------------------------------------------
                    Distance matrix (angstroms):
                    1          2          3          4          5
     1  Au   0.000000
     2  Au   2.841195   0.000000
     3  Au   2.841152   2.841143   0.000000
     4  Au   5.682337   2.841142   4.921052   0.000000
     5  Au   4.921074   2.841152   2.841195   2.841183   0.000000
     6  Au   5.682317   4.920998   2.841165   5.682337   2.841154
     7  Au   2.841161   2.841156   2.841200   4.921058   4.018062
     8  Au   4.921076   2.841153   4.018059   2.841178   2.841197
     9  Au   4.920997   4.017928   2.841153   4.921025   2.841148
    10  Au   5.682315   4.920998   4.921080   5.682334   4.921076
    11  C    7.297969   6.460622   6.180648   6.809142   5.895093
    12  C    7.415639   6.246147   6.587699   6.259587   5.957590
    13  H    7.825861   6.860031   6.332628   7.001546   5.830141
    14  H    8.019681   6.498170   7.022884   6.023511   5.941739
    15  C    6.829247   6.558762   5.997768   7.452615   6.358019
    16  C    7.078247   6.129147   6.809459   6.416891   6.473487
    17  H    7.035535   7.023215   6.012662   8.080704   6.637119
    18  C    6.461242   6.447433   6.240481   7.585266   6.843813
    19  C    6.593862   6.232480   6.643887   7.096030   6.897715
    20  H    7.459262   6.297448   7.388472   6.310329   6.832219
    21  H    6.389405   6.837945   6.435869   8.296717   7.444854
    22  H    6.625335   6.474839   7.116110   7.489784   7.532591
    23  Au   8.174477   7.578503   7.592005   8.011916   7.504838
    24  Au  10.911243   9.965084  10.140137   9.782460   9.546858
    25  Au  10.231687   9.902290  10.146873  10.371536  10.217603
    26  Au  10.430063  10.181100   9.692917  10.708373   9.843458
    27  Au  13.690614  12.542593  12.812133  11.972751  11.920861
    28  Au  12.844956  12.165398  12.498609  12.130409  12.136377
    29  Au  13.003528  12.393401  12.132966  12.419635  11.823110
    30  Au  12.597511  12.442730  12.822795  12.926378  12.985405
    31  Au  12.438807  12.342967  12.138596  12.888738  12.371049
    32  Au  12.918780  12.884892  12.100052  13.464480  12.393920
                    6          7          8          9         10
     6  Au   0.000000
     7  Au   4.921082   0.000000
     8  Au   4.921078   2.841200   0.000000
     9  Au   2.841202   2.841150   2.841153   0.000000
    10  Au   5.682406   2.841153   2.841156   2.841205   0.000000
    11  C    6.267762   4.475123   4.071674   3.610925   1.713920
    12  C    6.924469   4.601549   3.642720   4.201468   1.871152
    13  H    5.924913   5.074682   4.431801   3.561247   2.530839
    14  H    7.104287   5.271428   3.710980   4.567884   2.721215
    15  C    6.438340   4.111861   4.621546   3.783386   1.822261
    16  C    7.666832   4.382083   3.839271   4.851990   2.109057
    17  H    6.240979   4.496590   5.302705   3.865834   2.661646
    18  C    7.230766   3.864618   4.778027   4.494799   2.065749
    19  C    7.806914   4.010334   4.418152   4.981666   2.197940
    20  H    8.347628   4.928503   4.047207   5.595629   3.013980
    21  H    7.626319   4.089222   5.543219   5.038814   2.960307
    22  H    8.574815   4.330928   4.985770   5.794212   3.124612
    23  Au   8.037375   5.395262   5.271909   5.291251   2.745920
    24  Au  10.135774   8.098453   7.342016   7.577873   5.315932
    25  Au  10.833979   7.662998   7.756420   8.066302   5.375887
    26  Au   9.760299   7.760253   7.947499   7.311636   5.272701
    27  Au  12.530482  10.872236   9.806216  10.148669   8.069860
    28  Au  12.789917  10.162182   9.713214  10.127407   7.595490
    29  Au  11.894130  10.235719   9.866471   9.537252   7.522813
    30  Au  13.649005  10.221484  10.424758  10.875552   8.148907
    31  Au  12.494459   9.894774  10.178610   9.929766   7.565298
    32  Au  11.919396  10.367193  10.708732   9.750241   8.012933
                   11         12         13         14         15
    11  C    0.000000
    12  C    1.398964   0.000000
    13  H    1.082386   2.154757   0.000000
    14  H    2.154731   1.082400   2.481368   0.000000
    15  C    1.399005   2.423155   2.154711   3.403823   0.000000
    16  C    2.423163   1.399007   3.403840   2.154757   2.798129
    17  H    2.154764   3.403775   2.481353   4.297852   1.082304
    18  C    2.423160   2.798043   3.403805   3.880443   1.399046
    19  C    2.798005   2.423158   3.880391   3.403851   2.423215
    20  H    3.403791   2.154781   4.297889   2.481432   3.880435
    21  H    3.403770   3.880358   4.297813   4.962757   2.154752
    22  H    3.880343   3.403805   4.962729   4.297913   3.403828
    23  Au   1.862949   1.893601   2.705073   2.742572   1.952473
    24  Au   4.005353   3.733756   4.249101   3.785045   4.579656
    25  Au   4.697168   4.450495   5.427755   5.045626   4.493113
    26  Au   3.989265   4.540712   4.248012   5.137015   3.726107
    27  Au   6.690258   6.359290   6.703486   6.105395   7.367412
    28  Au   6.535127   6.183393   6.947676   6.351019   6.739540
    29  Au   6.046384   6.248642   6.070857   6.423865   6.254377
    30  Au   7.536618   7.223054   8.230921   7.716178   7.260055
    31  Au   6.525281   6.701604   6.947011   7.238634   6.191288
    32  Au   6.671004   7.334494   6.702104   7.835851   6.332456
                   16         17         18         19         20
    16  C    0.000000
    17  H    3.880433   0.000000
    18  C    2.423291   2.154699   0.000000
    19  C    1.399090   3.403791   1.399064   0.000000
    20  H    1.082306   4.962738   3.403869   2.154764   0.000000
    21  H    3.403901   2.481297   1.082314   2.154780   4.297891
    22  H    2.154820   4.297804   2.154757   1.082338   2.481405
    23  Au   2.010593   2.814761   2.066083   2.093739   2.886418
    24  Au   4.095012   5.176806   4.878696   4.658271   4.398066
    25  Au   3.959144   5.112091   4.006950   3.714688   4.257791
    26  Au   4.826203   3.800603   4.069091   4.611026   5.579533
    27  Au   6.755752   7.862582   7.712268   7.426955   6.819016
    28  Au   6.039346   7.285750   6.607636   6.259943   6.100213
    29  Au   6.640115   6.433761   6.645505   6.830049   7.086256
    30  Au   6.591782   7.777434   6.632271   6.273635   6.638568
    31  Au   6.557197   6.381804   6.034626   6.224868   7.000059
    32  Au   7.660704   6.091854   6.707512   7.367753   8.371103
                   21         22         23         24         25
    21  H    0.000000
    22  H    2.481370   0.000000
    23  Au   2.955105   2.989451   0.000000
    24  Au   5.640539   5.299770   2.841153   0.000000
    25  Au   4.336406   3.847317   2.841153   2.841160   0.000000
    26  Au   4.380247   5.246883   2.841151   2.841154   2.841154
    27  Au   8.428709   7.961327   5.682315   2.841161   4.921034
    28  Au   7.068217   6.482656   4.921027   2.841161   2.841161
    29  Au   7.095200   7.399512   4.921029   2.841160   4.018007
    30  Au   6.709740   6.067231   5.682315   4.921034   2.841161
    31  Au   6.109877   6.439492   4.921029   4.018007   2.841160
    32  Au   6.766453   7.890953   5.682311   4.921025   4.921025
                   26         27         28         29         30
    26  Au   0.000000
    27  Au   4.921029   0.000000
    28  Au   4.018001   2.841160   0.000000
    29  Au   2.841161   2.841154   2.841154   0.000000
    30  Au   4.921029   5.682320   2.841160   4.921030   0.000000
    31  Au   2.841161   4.921030   2.841154   2.841160   2.841154
    32  Au   2.841160   5.682308   4.921020   2.841154   5.682308
                   31         32
    31  Au   0.000000
    32  Au   2.841154   0.000000
 Symmetry turned off by external request.
 Stoichiometry    C6H6Au20
 Framework group  C1[X(C6H6Au20)]
 Deg. of freedom    90
 Full point group                 C1      NOp   1
 Rotational constants (GHZ):      0.0262193      0.0045288      0.0045281
 Leave Link  202 at Tue Dec 22 12:09:56 2020, MaxMem=  2147483648 cpu:         0.1
 (Enter /home/palacios/Gaussian09/intel/v.D01/g09/l301.exe)
 General basis read from cards:  (5D, 7F)
 Centers:       1      2      3      4      5      6      7      8      9     10
 Centers:      23     24     25     26     27     28     29     30     31     32
 S 4 1.00
     Exponent=  2.8090000000D+00 Coefficients=  1.1608481000D+00
     Exponent=  1.5950000000D+00 Coefficients= -1.8642846000D+00
     Exponent=  5.3270000000D-01 Coefficients= -1.0356230000D+00
     Exponent=  2.8260000000D-01 Coefficients=  1.3064399000D+00
 S 3 1.00
     Exponent=  2.8090000000D+00 Coefficients= -1.2021556000D+00
     Exponent=  1.5950000000D+00 Coefficients=  1.6741578000D+00
     Exponent=  5.3270000000D-01 Coefficients=  3.5265930000D-01
 S 1 1.00
     Exponent=  5.9800000000D-02 Coefficients=  1.0000000000D+00
 P 3 1.00
     Exponent=  3.6840000000D+00 Coefficients= -2.8026810000D-01
     Exponent=  1.6660000000D+00 Coefficients=  7.8183980000D-01
     Exponent=  5.9890000000D-01 Coefficients=  4.8047760000D-01
 P 2 1.00
     Exponent=  6.8380000000D-01 Coefficients= -9.5207800000D-02
     Exponent=  9.7700000000D-02 Coefficients=  1.0299147000D+00
 P 1 1.00
     Exponent=  2.7900000000D-02 Coefficients=  1.0000000000D+00
 D 1 1.001.2870000 0.5844273
     Exponent=  4.3350000000D-01 Coefficients=  5.2981610000D-01
 D 1 1.00
     Exponent=  1.3960000000D-01 Coefficients=  1.0000000000D+00
 ****
 Centers:      11     12     15     16     18     19
 S 7 1.00
     Exponent=  4.2330000000D+03 Coefficients=  1.2200000000D-03
     Exponent=  6.3490000000D+02 Coefficients=  9.3420000000D-03
     Exponent=  1.4610000000D+02 Coefficients=  4.5452000000D-02
     Exponent=  4.2500000000D+01 Coefficients=  1.5465700000D-01
     Exponent=  1.4190000000D+01 Coefficients=  3.5886600000D-01
     Exponent=  5.1480000000D+00 Coefficients=  4.3863200000D-01
     Exponent=  1.9670000000D+00 Coefficients=  1.4591800000D-01
 S 2 1.00
     Exponent=  5.1480000000D+00 Coefficients= -1.6836700000D-01
     Exponent=  4.9620000000D-01 Coefficients=  1.0600910000D+00
 S 1 1.00
     Exponent=  1.5330000000D-01 Coefficients=  1.0000000000D+00
 P 4 1.00
     Exponent=  1.8160000000D+01 Coefficients=  1.8539000000D-02
     Exponent=  3.9860000000D+00 Coefficients=  1.1543600000D-01
     Exponent=  1.1430000000D+00 Coefficients=  3.8618800000D-01
     Exponent=  3.5940000000D-01 Coefficients=  6.4011400000D-01
 P 1 1.00
     Exponent=  1.1460000000D-01 Coefficients=  1.0000000000D+00
 ****
 Centers:      13     14     17     20     21     22
 S 3 1.00
     Exponent=  1.9238400000D+01 Coefficients=  3.2828000000D-02
     Exponent=  2.8987000000D+00 Coefficients=  2.3120400000D-01
     Exponent=  6.5350000000D-01 Coefficients=  8.1722600000D-01
 S 1 1.00
     Exponent=  1.7760000000D-01 Coefficients=  1.0000000000D+00
 ****
 ======================================================================================================
                                       Pseudopotential Parameters
 ======================================================================================================
  Center     Atomic      Valence      Angular      Power
  Number     Number     Electrons     Momentum     of R      Exponent        Coefficient   SO-Coeffient
 ======================================================================================================
    1         79           19
                                      G and up 
                                                     1      622.6287956      -60.00000000    0.00000000
                                                     2      136.2843607     -555.52923120    0.00000000
                                                     2       33.1549781     -168.00197850    0.00000000
                                                     2        9.9894895      -63.03998750    0.00000000
                                                     2        3.0481312       -4.25166810    0.00000000
                                      S - G
                                                     0      194.7374304        3.00000000    0.00000000
                                                     1      351.5327447       38.60208800    0.00000000
                                                     2      122.3270402      864.83707270    0.00000000
                                                     2       32.0914617      374.99355200    0.00000000
                                                     2        5.2451812      289.79101000    0.00000000
                                                     2        4.4916223     -152.45327730    0.00000000
                                      P - G
                                                     0      420.6158801        2.00000000    0.00000000
                                                     1      109.4417815       73.88856250    0.00000000
                                                     2       34.1714280      326.67298720    0.00000000
                                                     2        5.9879750      126.58145910    0.00000000
                                      D - G
                                                     0      219.2666158        3.00000000    0.00000000
                                                     1      122.7297786       55.67931490    0.00000000
                                                     2       63.1063369      449.19873350    0.00000000
                                                     2       18.3684520      215.02690910    0.00000000
                                                     2        4.4972844       64.08409950    0.00000000
                                      F - G
                                                     0      108.5506037        4.00000000    0.00000000
                                                     1       56.4795527       51.80653350    0.00000000
                                                     2       29.2069159      231.21831130    0.00000000
                                                     2        9.5440543      119.00473860    0.00000000
                                                     2        2.8965118       15.34241880    0.00000000
    2         79           19
                                      G and up 
                                                     1      622.6287956      -60.00000000    0.00000000
                                                     2      136.2843607     -555.52923120    0.00000000
                                                     2       33.1549781     -168.00197850    0.00000000
                                                     2        9.9894895      -63.03998750    0.00000000
                                                     2        3.0481312       -4.25166810    0.00000000
                                      S - G
                                                     0      194.7374304        3.00000000    0.00000000
                                                     1      351.5327447       38.60208800    0.00000000
                                                     2      122.3270402      864.83707270    0.00000000
                                                     2       32.0914617      374.99355200    0.00000000
                                                     2        5.2451812      289.79101000    0.00000000
                                                     2        4.4916223     -152.45327730    0.00000000
                                      P - G
                                                     0      420.6158801        2.00000000    0.00000000
                                                     1      109.4417815       73.88856250    0.00000000
                                                     2       34.1714280      326.67298720    0.00000000
                                                     2        5.9879750      126.58145910    0.00000000
                                      D - G
                                                     0      219.2666158        3.00000000    0.00000000
                                                     1      122.7297786       55.67931490    0.00000000
                                                     2       63.1063369      449.19873350    0.00000000
                                                     2       18.3684520      215.02690910    0.00000000
                                                     2        4.4972844       64.08409950    0.00000000
                                      F - G
                                                     0      108.5506037        4.00000000    0.00000000
                                                     1       56.4795527       51.80653350    0.00000000
                                                     2       29.2069159      231.21831130    0.00000000
                                                     2        9.5440543      119.00473860    0.00000000
                                                     2        2.8965118       15.34241880    0.00000000
    3         79           19
                                      G and up 
                                                     1      622.6287956      -60.00000000    0.00000000
                                                     2      136.2843607     -555.52923120    0.00000000
                                                     2       33.1549781     -168.00197850    0.00000000
                                                     2        9.9894895      -63.03998750    0.00000000
                                                     2        3.0481312       -4.25166810    0.00000000
                                      S - G
                                                     0      194.7374304        3.00000000    0.00000000
                                                     1      351.5327447       38.60208800    0.00000000
                                                     2      122.3270402      864.83707270    0.00000000
                                                     2       32.0914617      374.99355200    0.00000000
                                                     2        5.2451812      289.79101000    0.00000000
                                                     2        4.4916223     -152.45327730    0.00000000
                                      P - G
                                                     0      420.6158801        2.00000000    0.00000000
                                                     1      109.4417815       73.88856250    0.00000000
                                                     2       34.1714280      326.67298720    0.00000000
                                                     2        5.9879750      126.58145910    0.00000000
                                      D - G
                                                     0      219.2666158        3.00000000    0.00000000
                                                     1      122.7297786       55.67931490    0.00000000
                                                     2       63.1063369      449.19873350    0.00000000
                                                     2       18.3684520      215.02690910    0.00000000
                                                     2        4.4972844       64.08409950    0.00000000
                                      F - G
                                                     0      108.5506037        4.00000000    0.00000000
                                                     1       56.4795527       51.80653350    0.00000000
                                                     2       29.2069159      231.21831130    0.00000000
                                                     2        9.5440543      119.00473860    0.00000000
                                                     2        2.8965118       15.34241880    0.00000000
    4         79           19
                                      G and up 
                                                     1      622.6287956      -60.00000000    0.00000000
                                                     2      136.2843607     -555.52923120    0.00000000
                                                     2       33.1549781     -168.00197850    0.00000000
                                                     2        9.9894895      -63.03998750    0.00000000
                                                     2        3.0481312       -4.25166810    0.00000000
                                      S - G
                                                     0      194.7374304        3.00000000    0.00000000
                                                     1      351.5327447       38.60208800    0.00000000
                                                     2      122.3270402      864.83707270    0.00000000
                                                     2       32.0914617      374.99355200    0.00000000
                                                     2        5.2451812      289.79101000    0.00000000
                                                     2        4.4916223     -152.45327730    0.00000000
                                      P - G
                                                     0      420.6158801        2.00000000    0.00000000
                                                     1      109.4417815       73.88856250    0.00000000
                                                     2       34.1714280      326.67298720    0.00000000
                                                     2        5.9879750      126.58145910    0.00000000
                                      D - G
                                                     0      219.2666158        3.00000000    0.00000000
                                                     1      122.7297786       55.67931490    0.00000000
                                                     2       63.1063369      449.19873350    0.00000000
                                                     2       18.3684520      215.02690910    0.00000000
                                                     2        4.4972844       64.08409950    0.00000000
                                      F - G
                                                     0      108.5506037        4.00000000    0.00000000
                                                     1       56.4795527       51.80653350    0.00000000
                                                     2       29.2069159      231.21831130    0.00000000
                                                     2        9.5440543      119.00473860    0.00000000
                                                     2        2.8965118       15.34241880    0.00000000
    5         79           19
                                      G and up 
                                                     1      622.6287956      -60.00000000    0.00000000
                                                     2      136.2843607     -555.52923120    0.00000000
                                                     2       33.1549781     -168.00197850    0.00000000
                                                     2        9.9894895      -63.03998750    0.00000000
                                                     2        3.0481312       -4.25166810    0.00000000
                                      S - G
                                                     0      194.7374304        3.00000000    0.00000000
                                                     1      351.5327447       38.60208800    0.00000000
                                                     2      122.3270402      864.83707270    0.00000000
                                                     2       32.0914617      374.99355200    0.00000000
                                                     2        5.2451812      289.79101000    0.00000000
                                                     2        4.4916223     -152.45327730    0.00000000
                                      P - G
                                                     0      420.6158801        2.00000000    0.00000000
                                                     1      109.4417815       73.88856250    0.00000000
                                                     2       34.1714280      326.67298720    0.00000000
                                                     2        5.9879750      126.58145910    0.00000000
                                      D - G
                                                     0      219.2666158        3.00000000    0.00000000
                                                     1      122.7297786       55.67931490    0.00000000
                                                     2       63.1063369      449.19873350    0.00000000
                                                     2       18.3684520      215.02690910    0.00000000
                                                     2        4.4972844       64.08409950    0.00000000
                                      F - G
                                                     0      108.5506037        4.00000000    0.00000000
                                                     1       56.4795527       51.80653350    0.00000000
                                                     2       29.2069159      231.21831130    0.00000000
                                                     2        9.5440543      119.00473860    0.00000000
                                                     2        2.8965118       15.34241880    0.00000000
    6         79           19
                                      G and up 
                                                     1      622.6287956      -60.00000000    0.00000000
                                                     2      136.2843607     -555.52923120    0.00000000
                                                     2       33.1549781     -168.00197850    0.00000000
                                                     2        9.9894895      -63.03998750    0.00000000
                                                     2        3.0481312       -4.25166810    0.00000000
                                      S - G
                                                     0      194.7374304        3.00000000    0.00000000
                                                     1      351.5327447       38.60208800    0.00000000
                                                     2      122.3270402      864.83707270    0.00000000
                                                     2       32.0914617      374.99355200    0.00000000
                                                     2        5.2451812      289.79101000    0.00000000
                                                     2        4.4916223     -152.45327730    0.00000000
                                      P - G
                                                     0      420.6158801        2.00000000    0.00000000
                                                     1      109.4417815       73.88856250    0.00000000
                                                     2       34.1714280      326.67298720    0.00000000
                                                     2        5.9879750      126.58145910    0.00000000
                                      D - G
                                                     0      219.2666158        3.00000000    0.00000000
                                                     1      122.7297786       55.67931490    0.00000000
                                                     2       63.1063369      449.19873350    0.00000000
                                                     2       18.3684520      215.02690910    0.00000000
                                                     2        4.4972844       64.08409950    0.00000000
                                      F - G
                                                     0      108.5506037        4.00000000    0.00000000
                                                     1       56.4795527       51.80653350    0.00000000
                                                     2       29.2069159      231.21831130    0.00000000
                                                     2        9.5440543      119.00473860    0.00000000
                                                     2        2.8965118       15.34241880    0.00000000
    7         79           19
                                      G and up 
                                                     1      622.6287956      -60.00000000    0.00000000
                                                     2      136.2843607     -555.52923120    0.00000000
                                                     2       33.1549781     -168.00197850    0.00000000
                                                     2        9.9894895      -63.03998750    0.00000000
                                                     2        3.0481312       -4.25166810    0.00000000
                                      S - G
                                                     0      194.7374304        3.00000000    0.00000000
                                                     1      351.5327447       38.60208800    0.00000000
                                                     2      122.3270402      864.83707270    0.00000000
                                                     2       32.0914617      374.99355200    0.00000000
                                                     2        5.2451812      289.79101000    0.00000000
                                                     2        4.4916223     -152.45327730    0.00000000
                                      P - G
                                                     0      420.6158801        2.00000000    0.00000000
                                                     1      109.4417815       73.88856250    0.00000000
                                                     2       34.1714280      326.67298720    0.00000000
                                                     2        5.9879750      126.58145910    0.00000000
                                      D - G
                                                     0      219.2666158        3.00000000    0.00000000
                                                     1      122.7297786       55.67931490    0.00000000
                                                     2       63.1063369      449.19873350    0.00000000
                                                     2       18.3684520      215.02690910    0.00000000
                                                     2        4.4972844       64.08409950    0.00000000
                                      F - G
                                                     0      108.5506037        4.00000000    0.00000000
                                                     1       56.4795527       51.80653350    0.00000000
                                                     2       29.2069159      231.21831130    0.00000000
                                                     2        9.5440543      119.00473860    0.00000000
                                                     2        2.8965118       15.34241880    0.00000000
    8         79           19
                                      G and up 
                                                     1      622.6287956      -60.00000000    0.00000000
                                                     2      136.2843607     -555.52923120    0.00000000
                                                     2       33.1549781     -168.00197850    0.00000000
                                                     2        9.9894895      -63.03998750    0.00000000
                                                     2        3.0481312       -4.25166810    0.00000000
                                      S - G
                                                     0      194.7374304        3.00000000    0.00000000
                                                     1      351.5327447       38.60208800    0.00000000
                                                     2      122.3270402      864.83707270    0.00000000
                                                     2       32.0914617      374.99355200    0.00000000
                                                     2        5.2451812      289.79101000    0.00000000
                                                     2        4.4916223     -152.45327730    0.00000000
                                      P - G
                                                     0      420.6158801        2.00000000    0.00000000
                                                     1      109.4417815       73.88856250    0.00000000
                                                     2       34.1714280      326.67298720    0.00000000
                                                     2        5.9879750      126.58145910    0.00000000
                                      D - G
                                                     0      219.2666158        3.00000000    0.00000000
                                                     1      122.7297786       55.67931490    0.00000000
                                                     2       63.1063369      449.19873350    0.00000000
                                                     2       18.3684520      215.02690910    0.00000000
                                                     2        4.4972844       64.08409950    0.00000000
                                      F - G
                                                     0      108.5506037        4.00000000    0.00000000
                                                     1       56.4795527       51.80653350    0.00000000
                                                     2       29.2069159      231.21831130    0.00000000
                                                     2        9.5440543      119.00473860    0.00000000
                                                     2        2.8965118       15.34241880    0.00000000
    9         79           19
                                      G and up 
                                                     1      622.6287956      -60.00000000    0.00000000
                                                     2      136.2843607     -555.52923120    0.00000000
                                                     2       33.1549781     -168.00197850    0.00000000
                                                     2        9.9894895      -63.03998750    0.00000000
                                                     2        3.0481312       -4.25166810    0.00000000
                                      S - G
                                                     0      194.7374304        3.00000000    0.00000000
                                                     1      351.5327447       38.60208800    0.00000000
                                                     2      122.3270402      864.83707270    0.00000000
                                                     2       32.0914617      374.99355200    0.00000000
                                                     2        5.2451812      289.79101000    0.00000000
                                                     2        4.4916223     -152.45327730    0.00000000
                                      P - G
                                                     0      420.6158801        2.00000000    0.00000000
                                                     1      109.4417815       73.88856250    0.00000000
                                                     2       34.1714280      326.67298720    0.00000000
                                                     2        5.9879750      126.58145910    0.00000000
                                      D - G
                                                     0      219.2666158        3.00000000    0.00000000
                                                     1      122.7297786       55.67931490    0.00000000
                                                     2       63.1063369      449.19873350    0.00000000
                                                     2       18.3684520      215.02690910    0.00000000
                                                     2        4.4972844       64.08409950    0.00000000
                                      F - G
                                                     0      108.5506037        4.00000000    0.00000000
                                                     1       56.4795527       51.80653350    0.00000000
                                                     2       29.2069159      231.21831130    0.00000000
                                                     2        9.5440543      119.00473860    0.00000000
                                                     2        2.8965118       15.34241880    0.00000000
   10         79           19
                                      G and up 
                                                     1      622.6287956      -60.00000000    0.00000000
                                                     2      136.2843607     -555.52923120    0.00000000
                                                     2       33.1549781     -168.00197850    0.00000000
                                                     2        9.9894895      -63.03998750    0.00000000
                                                     2        3.0481312       -4.25166810    0.00000000
                                      S - G
                                                     0      194.7374304        3.00000000    0.00000000
                                                     1      351.5327447       38.60208800    0.00000000
                                                     2      122.3270402      864.83707270    0.00000000
                                                     2       32.0914617      374.99355200    0.00000000
                                                     2        5.2451812      289.79101000    0.00000000
                                                     2        4.4916223     -152.45327730    0.00000000
                                      P - G
                                                     0      420.6158801        2.00000000    0.00000000
                                                     1      109.4417815       73.88856250    0.00000000
                                                     2       34.1714280      326.67298720    0.00000000
                                                     2        5.9879750      126.58145910    0.00000000
                                      D - G
                                                     0      219.2666158        3.00000000    0.00000000
                                                     1      122.7297786       55.67931490    0.00000000
                                                     2       63.1063369      449.19873350    0.00000000
                                                     2       18.3684520      215.02690910    0.00000000
                                                     2        4.4972844       64.08409950    0.00000000
                                      F - G
                                                     0      108.5506037        4.00000000    0.00000000
                                                     1       56.4795527       51.80653350    0.00000000
                                                     2       29.2069159      231.21831130    0.00000000
                                                     2        9.5440543      119.00473860    0.00000000
                                                     2        2.8965118       15.34241880    0.00000000
   11          6
                                   No pseudopotential on this center.
   12          6
                                   No pseudopotential on this center.
   13          1
                                   No pseudopotential on this center.
   14          1
                                   No pseudopotential on this center.
   15          6
                                   No pseudopotential on this center.
   16          6
                                   No pseudopotential on this center.
   17          1
                                   No pseudopotential on this center.
   18          6
                                   No pseudopotential on this center.
   19          6
                                   No pseudopotential on this center.
   20          1
                                   No pseudopotential on this center.
   21          1
                                   No pseudopotential on this center.
   22          1
                                   No pseudopotential on this center.
   23         79           19
                                      G and up 
                                                     1      622.6287956      -60.00000000    0.00000000
                                                     2      136.2843607     -555.52923120    0.00000000
                                                     2       33.1549781     -168.00197850    0.00000000
                                                     2        9.9894895      -63.03998750    0.00000000
                                                     2        3.0481312       -4.25166810    0.00000000
                                      S - G
                                                     0      194.7374304        3.00000000    0.00000000
                                                     1      351.5327447       38.60208800    0.00000000
                                                     2      122.3270402      864.83707270    0.00000000
                                                     2       32.0914617      374.99355200    0.00000000
                                                     2        5.2451812      289.79101000    0.00000000
                                                     2        4.4916223     -152.45327730    0.00000000
                                      P - G
                                                     0      420.6158801        2.00000000    0.00000000
                                                     1      109.4417815       73.88856250    0.00000000
                                                     2       34.1714280      326.67298720    0.00000000
                                                     2        5.9879750      126.58145910    0.00000000
                                      D - G
                                                     0      219.2666158        3.00000000    0.00000000
                                                     1      122.7297786       55.67931490    0.00000000
                                                     2       63.1063369      449.19873350    0.00000000
                                                     2       18.3684520      215.02690910    0.00000000
                                                     2        4.4972844       64.08409950    0.00000000
                                      F - G
                                                     0      108.5506037        4.00000000    0.00000000
                                                     1       56.4795527       51.80653350    0.00000000
                                                     2       29.2069159      231.21831130    0.00000000
                                                     2        9.5440543      119.00473860    0.00000000
                                                     2        2.8965118       15.34241880    0.00000000
   24         79           19
                                      G and up 
                                                     1      622.6287956      -60.00000000    0.00000000
                                                     2      136.2843607     -555.52923120    0.00000000
                                                     2       33.1549781     -168.00197850    0.00000000
                                                     2        9.9894895      -63.03998750    0.00000000
                                                     2        3.0481312       -4.25166810    0.00000000
                                      S - G
                                                     0      194.7374304        3.00000000    0.00000000
                                                     1      351.5327447       38.60208800    0.00000000
                                                     2      122.3270402      864.83707270    0.00000000
                                                     2       32.0914617      374.99355200    0.00000000
                                                     2        5.2451812      289.79101000    0.00000000
                                                     2        4.4916223     -152.45327730    0.00000000
                                      P - G
                                                     0      420.6158801        2.00000000    0.00000000
                                                     1      109.4417815       73.88856250    0.00000000
                                                     2       34.1714280      326.67298720    0.00000000
                                                     2        5.9879750      126.58145910    0.00000000
                                      D - G
                                                     0      219.2666158        3.00000000    0.00000000
                                                     1      122.7297786       55.67931490    0.00000000
                                                     2       63.1063369      449.19873350    0.00000000
                                                     2       18.3684520      215.02690910    0.00000000
                                                     2        4.4972844       64.08409950    0.00000000
                                      F - G
                                                     0      108.5506037        4.00000000    0.00000000
                                                     1       56.4795527       51.80653350    0.00000000
                                                     2       29.2069159      231.21831130    0.00000000
                                                     2        9.5440543      119.00473860    0.00000000
                                                     2        2.8965118       15.34241880    0.00000000
   25         79           19
                                      G and up 
                                                     1      622.6287956      -60.00000000    0.00000000
                                                     2      136.2843607     -555.52923120    0.00000000
                                                     2       33.1549781     -168.00197850    0.00000000
                                                     2        9.9894895      -63.03998750    0.00000000
                                                     2        3.0481312       -4.25166810    0.00000000
                                      S - G
                                                     0      194.7374304        3.00000000    0.00000000
                                                     1      351.5327447       38.60208800    0.00000000
                                                     2      122.3270402      864.83707270    0.00000000
                                                     2       32.0914617      374.99355200    0.00000000
                                                     2        5.2451812      289.79101000    0.00000000
                                                     2        4.4916223     -152.45327730    0.00000000
                                      P - G
                                                     0      420.6158801        2.00000000    0.00000000
                                                     1      109.4417815       73.88856250    0.00000000
                                                     2       34.1714280      326.67298720    0.00000000
                                                     2        5.9879750      126.58145910    0.00000000
                                      D - G
                                                     0      219.2666158        3.00000000    0.00000000
                                                     1      122.7297786       55.67931490    0.00000000
                                                     2       63.1063369      449.19873350    0.00000000
                                                     2       18.3684520      215.02690910    0.00000000
                                                     2        4.4972844       64.08409950    0.00000000
                                      F - G
                                                     0      108.5506037        4.00000000    0.00000000
                                                     1       56.4795527       51.80653350    0.00000000
                                                     2       29.2069159      231.21831130    0.00000000
                                                     2        9.5440543      119.00473860    0.00000000
                                                     2        2.8965118       15.34241880    0.00000000
   26         79           19
                                      G and up 
                                                     1      622.6287956      -60.00000000    0.00000000
                                                     2      136.2843607     -555.52923120    0.00000000
                                                     2       33.1549781     -168.00197850    0.00000000
                                                     2        9.9894895      -63.03998750    0.00000000
                                                     2        3.0481312       -4.25166810    0.00000000
                                      S - G
                                                     0      194.7374304        3.00000000    0.00000000
                                                     1      351.5327447       38.60208800    0.00000000
                                                     2      122.3270402      864.83707270    0.00000000
                                                     2       32.0914617      374.99355200    0.00000000
                                                     2        5.2451812      289.79101000    0.00000000
                                                     2        4.4916223     -152.45327730    0.00000000
                                      P - G
                                                     0      420.6158801        2.00000000    0.00000000
                                                     1      109.4417815       73.88856250    0.00000000
                                                     2       34.1714280      326.67298720    0.00000000
                                                     2        5.9879750      126.58145910    0.00000000
                                      D - G
                                                     0      219.2666158        3.00000000    0.00000000
                                                     1      122.7297786       55.67931490    0.00000000
                                                     2       63.1063369      449.19873350    0.00000000
                                                     2       18.3684520      215.02690910    0.00000000
                                                     2        4.4972844       64.08409950    0.00000000
                                      F - G
                                                     0      108.5506037        4.00000000    0.00000000
                                                     1       56.4795527       51.80653350    0.00000000
                                                     2       29.2069159      231.21831130    0.00000000
                                                     2        9.5440543      119.00473860    0.00000000
                                                     2        2.8965118       15.34241880    0.00000000
   27         79           19
                                      G and up 
                                                     1      622.6287956      -60.00000000    0.00000000
                                                     2      136.2843607     -555.52923120    0.00000000
                                                     2       33.1549781     -168.00197850    0.00000000
                                                     2        9.9894895      -63.03998750    0.00000000
                                                     2        3.0481312       -4.25166810    0.00000000
                                      S - G
                                                     0      194.7374304        3.00000000    0.00000000
                                                     1      351.5327447       38.60208800    0.00000000
                                                     2      122.3270402      864.83707270    0.00000000
                                                     2       32.0914617      374.99355200    0.00000000
                                                     2        5.2451812      289.79101000    0.00000000
                                                     2        4.4916223     -152.45327730    0.00000000
                                      P - G
                                                     0      420.6158801        2.00000000    0.00000000
                                                     1      109.4417815       73.88856250    0.00000000
                                                     2       34.1714280      326.67298720    0.00000000
                                                     2        5.9879750      126.58145910    0.00000000
                                      D - G
                                                     0      219.2666158        3.00000000    0.00000000
                                                     1      122.7297786       55.67931490    0.00000000
                                                     2       63.1063369      449.19873350    0.00000000
                                                     2       18.3684520      215.02690910    0.00000000
                                                     2        4.4972844       64.08409950    0.00000000
                                      F - G
                                                     0      108.5506037        4.00000000    0.00000000
                                                     1       56.4795527       51.80653350    0.00000000
                                                     2       29.2069159      231.21831130    0.00000000
                                                     2        9.5440543      119.00473860    0.00000000
                                                     2        2.8965118       15.34241880    0.00000000
   28         79           19
                                      G and up 
                                                     1      622.6287956      -60.00000000    0.00000000
                                                     2      136.2843607     -555.52923120    0.00000000
                                                     2       33.1549781     -168.00197850    0.00000000
                                                     2        9.9894895      -63.03998750    0.00000000
                                                     2        3.0481312       -4.25166810    0.00000000
                                      S - G
                                                     0      194.7374304        3.00000000    0.00000000
                                                     1      351.5327447       38.60208800    0.00000000
                                                     2      122.3270402      864.83707270    0.00000000
                                                     2       32.0914617      374.99355200    0.00000000
                                                     2        5.2451812      289.79101000    0.00000000
                                                     2        4.4916223     -152.45327730    0.00000000
                                      P - G
                                                     0      420.6158801        2.00000000    0.00000000
                                                     1      109.4417815       73.88856250    0.00000000
                                                     2       34.1714280      326.67298720    0.00000000
                                                     2        5.9879750      126.58145910    0.00000000
                                      D - G
                                                     0      219.2666158        3.00000000    0.00000000
                                                     1      122.7297786       55.67931490    0.00000000
                                                     2       63.1063369      449.19873350    0.00000000
                                                     2       18.3684520      215.02690910    0.00000000
                                                     2        4.4972844       64.08409950    0.00000000
                                      F - G
                                                     0      108.5506037        4.00000000    0.00000000
                                                     1       56.4795527       51.80653350    0.00000000
                                                     2       29.2069159      231.21831130    0.00000000
                                                     2        9.5440543      119.00473860    0.00000000
                                                     2        2.8965118       15.34241880    0.00000000
   29         79           19
                                      G and up 
                                                     1      622.6287956      -60.00000000    0.00000000
                                                     2      136.2843607     -555.52923120    0.00000000
                                                     2       33.1549781     -168.00197850    0.00000000
                                                     2        9.9894895      -63.03998750    0.00000000
                                                     2        3.0481312       -4.25166810    0.00000000
                                      S - G
                                                     0      194.7374304        3.00000000    0.00000000
                                                     1      351.5327447       38.60208800    0.00000000
                                                     2      122.3270402      864.83707270    0.00000000
                                                     2       32.0914617      374.99355200    0.00000000
                                                     2        5.2451812      289.79101000    0.00000000
                                                     2        4.4916223     -152.45327730    0.00000000
                                      P - G
                                                     0      420.6158801        2.00000000    0.00000000
                                                     1      109.4417815       73.88856250    0.00000000
                                                     2       34.1714280      326.67298720    0.00000000
                                                     2        5.9879750      126.58145910    0.00000000
                                      D - G
                                                     0      219.2666158        3.00000000    0.00000000
                                                     1      122.7297786       55.67931490    0.00000000
                                                     2       63.1063369      449.19873350    0.00000000
                                                     2       18.3684520      215.02690910    0.00000000
                                                     2        4.4972844       64.08409950    0.00000000
                                      F - G
                                                     0      108.5506037        4.00000000    0.00000000
                                                     1       56.4795527       51.80653350    0.00000000
                                                     2       29.2069159      231.21831130    0.00000000
                                                     2        9.5440543      119.00473860    0.00000000
                                                     2        2.8965118       15.34241880    0.00000000
   30         79           19
                                      G and up 
                                                     1      622.6287956      -60.00000000    0.00000000
                                                     2      136.2843607     -555.52923120    0.00000000
                                                     2       33.1549781     -168.00197850    0.00000000
                                                     2        9.9894895      -63.03998750    0.00000000
                                                     2        3.0481312       -4.25166810    0.00000000
                                      S - G
                                                     0      194.7374304        3.00000000    0.00000000
                                                     1      351.5327447       38.60208800    0.00000000
                                                     2      122.3270402      864.83707270    0.00000000
                                                     2       32.0914617      374.99355200    0.00000000
                                                     2        5.2451812      289.79101000    0.00000000
                                                     2        4.4916223     -152.45327730    0.00000000
                                      P - G
                                                     0      420.6158801        2.00000000    0.00000000
                                                     1      109.4417815       73.88856250    0.00000000
                                                     2       34.1714280      326.67298720    0.00000000
                                                     2        5.9879750      126.58145910    0.00000000
                                      D - G
                                                     0      219.2666158        3.00000000    0.00000000
                                                     1      122.7297786       55.67931490    0.00000000
                                                     2       63.1063369      449.19873350    0.00000000
                                                     2       18.3684520      215.02690910    0.00000000
                                                     2        4.4972844       64.08409950    0.00000000
                                      F - G
                                                     0      108.5506037        4.00000000    0.00000000
                                                     1       56.4795527       51.80653350    0.00000000
[...]
                                      S - G
                                                     0      194.7374304        3.00000000    0.00000000
                                                     1      351.5327447       38.60208800    0.00000000
                                                     2      122.3270402      864.83707270    0.00000000
                                                     2       32.0914617      374.99355200    0.00000000
                                                     2        5.2451812      289.79101000    0.00000000
                                                     2        4.4916223     -152.45327730    0.00000000
                                      P - G
                                                     0      420.6158801        2.00000000    0.00000000
                                                     1      109.4417815       73.88856250    0.00000000
                                                     2       34.1714280      326.67298720    0.00000000
                                                     2        5.9879750      126.58145910    0.00000000
                                      D - G
                                                     0      219.2666158        3.00000000    0.00000000
                                                     1      122.7297786       55.67931490    0.00000000
                                                     2       63.1063369      449.19873350    0.00000000
                                                     2       18.3684520      215.02690910    0.00000000
                                                     2        4.4972844       64.08409950    0.00000000
                                      F - G
                                                     0      108.5506037        4.00000000    0.00000000
                                                     1       56.4795527       51.80653350    0.00000000
                                                     2       29.2069159      231.21831130    0.00000000
                                                     2        9.5440543      119.00473860    0.00000000
                                                     2        2.8965118       15.34241880    0.00000000
   32         79           19
                                      G and up 
                                                     1      622.6287956      -60.00000000    0.00000000
                                                     2      136.2843607     -555.52923120    0.00000000
                                                     2       33.1549781     -168.00197850    0.00000000
                                                     2        9.9894895      -63.03998750    0.00000000
                                                     2        3.0481312       -4.25166810    0.00000000
                                      S - G
                                                     0      194.7374304        3.00000000    0.00000000
                                                     1      351.5327447       38.60208800    0.00000000
                                                     2      122.3270402      864.83707270    0.00000000
                                                     2       32.0914617      374.99355200    0.00000000
                                                     2        5.2451812      289.79101000    0.00000000
                                                     2        4.4916223     -152.45327730    0.00000000
                                      P - G
                                                     0      420.6158801        2.00000000    0.00000000
                                                     1      109.4417815       73.88856250    0.00000000
                                                     2       34.1714280      326.67298720    0.00000000
                                                     2        5.9879750      126.58145910    0.00000000
                                      D - G
                                                     0      219.2666158        3.00000000    0.00000000
                                                     1      122.7297786       55.67931490    0.00000000
                                                     2       63.1063369      449.19873350    0.00000000
                                                     2       18.3684520      215.02690910    0.00000000
                                                     2        4.4972844       64.08409950    0.00000000
                                      F - G
                                                     0      108.5506037        4.00000000    0.00000000
                                                     1       56.4795527       51.80653350    0.00000000
                                                     2       29.2069159      231.21831130    0.00000000
                                                     2        9.5440543      119.00473860    0.00000000
                                                     2        2.8965118       15.34241880    0.00000000
 ======================================================================================================
 Ernie: Thresh=  0.10000D-02 Tol=  0.10000D-05 Strict=F.
 Ernie:  20 primitive shells out of 434 were deleted.
   506 basis functions,   914 primitive gaussians,   546 cartesian basis functions
   211 alpha electrons      211 beta electrons
       nuclear repulsion energy      8839.4171189007 Hartrees.
 IExCor=  205 DFT=T Ex=S Corr=VWN ExCW=0 ScaHFX=  0.000000
 ScaDFX=  1.000000  1.000000  1.000000  1.000000 ScalE2=  1.000000  1.000000
 IRadAn=      0 IRanWt=     -1 IRanGd=            0 ICorTp=0 IEmpDi=  4
 NAtoms=   32 NActive=   32 NUniq=   32 SFac= 1.00D+00 NAtFMM=   60 NAOKFM=F Big=F
 Integral buffers will be    131072 words long.
 Raffenetti 2 integral format.
 Two-electron integral symmetry is turned off.
 Leave Link  301 at Tue Dec 22 12:09:59 2020, MaxMem=  2147483648 cpu:         1.4
 (Enter /home/palacios/Gaussian09/intel/v.D01/g09/l302.exe)
 NPDir=0 NMtPBC=     1 NCelOv=     1 NCel=       1 NClECP=     1 NCelD=      1
         NCelK=      1 NCelE2=     1 NClLst=     1 CellRange=     0.0.
 One-electron integrals computed using PRISM.
   1 Symmetry operations used in ECPInt.
 ECPInt:  NShTT=   20503 NPrTT=   86291 LenC2=   18801 LenP2D=   59603.
 LDataN:  DoStor=T MaxTD1= 6 Len=  172
 GSVD:  received Info=                   1 from GESDD.
 NBasis=   506 RedAO= T EigKep=  2.43D-04  NBF=   506
 NBsUse=   506 1.00D-06 EigRej= -1.00D+00 NBFU=   506
 Precomputing XC quadrature grid using
 IXCGrd= 4 IRadAn=           0 IRanWt=          -1 IRanGd=           0 AccXCQ= 0.00D+00.
 Defaulting to unpruned grid for atomic number  79.
 Defaulting to unpruned grid for atomic number  79.
 Defaulting to unpruned grid for atomic number  79.
 Defaulting to unpruned grid for atomic number  79.
 Defaulting to unpruned grid for atomic number  79.
 Defaulting to unpruned grid for atomic number  79.
 Generated NRdTot=       0 NPtTot=           0 NUsed=           0 NTot=          32
 NSgBfM=   546   546   546   546   546 MxSgAt=    32 MxSgA2=    32.
 Leave Link  302 at Tue Dec 22 12:10:11 2020, MaxMem=  2147483648 cpu:        67.2
 (Enter /home/palacios/Gaussian09/intel/v.D01/g09/l303.exe)
 DipDrv:  MaxL=1.
 Leave Link  303 at Tue Dec 22 12:10:14 2020, MaxMem=  2147483648 cpu:         2.1
 (Enter /home/palacios/Gaussian09/intel/v.D01/g09/l401.exe)
 ExpMin= 2.79D-02 ExpMax= 4.23D+03 ExpMxC= 1.46D+02 IAcc=3 IRadAn=         5 AccDes= 0.00D+00
 Harris functional with IExCor=  205 and IRadAn=       5 diagonalized for initial guess.
 HarFok:  IExCor=  205 AccDes= 0.00D+00 IRadAn=         5 IDoV= 1 UseB2=F ITyADJ=14
 ICtDFT=  3500011 ScaDFX=  1.000000  1.000000  1.000000  1.000000
 Defaulting to unpruned grid for atomic number  79.
 Defaulting to unpruned grid for atomic number  79.
 Defaulting to unpruned grid for atomic number  79.
 Defaulting to unpruned grid for atomic number  79.
 Defaulting to unpruned grid for atomic number  79.
 Defaulting to unpruned grid for atomic number  79.
 Defaulting to unpruned grid for atomic number  79.
 Defaulting to unpruned grid for atomic number  79.
 FoFCou: FMM=F IPFlag=           0 FMFlag=      100000 FMFlg1=           0
         NFxFlg=           0 DoJE=T BraDBF=F KetDBF=T FulRan=T
         wScrn=  0.000000 ICntrl=     500 IOpCl=  0 I1Cent=   200000004 NGrid=           0
         NMat0=    1 NMatS0=      1 NMatT0=    0 NMatD0=    1 NMtDS0=    0 NMtDT0=    0
 Symmetry not used in FoFCou.
 Harris En= -2913.60740061077    
 JPrj=0 DoOrth=F DoCkMO=F.
 Leave Link  401 at Tue Dec 22 12:10:21 2020, MaxMem=  2147483648 cpu:        23.5
 (Enter ./l502.exe)
 Closed shell SCF:
 Using DIIS extrapolation, IDIIS=  1040.
 Two-electron integral symmetry not used.
 IVT=     1908582 IEndB=     1908582 NGot=  2147483648 MDV=  2146875729
 LenX=  2146875729 LenY=  2146577067
 Requested convergence on RMS density matrix=1.00D-05 within1000 cycles.
 Requested convergence on MAX density matrix=1.00D-03.
 Requested convergence on             energy=1.00D-03.
 No special actions if energy rises.
 Fock matrices will be formed incrementally for  20 cycles.

 Cycle   1  Pass 1  IDiag  1:
 
  ****************************************************************** 
  ***                                                            *** 
  ***                      A l i c a n t e                       *** 
  ***                      N a n o                               *** 
  ***                      T r a n s p o r t                     *** 
  ***                      G 0 9                                 *** 
  ***                                                            *** 
  ****************************************************************** 
  ***                     Version: 2.5.0                         *** 
  ****************************************************************** 
  *  Copyright (c) by                                              * 
  *                                                                * 
  *  Juan Jose Palacios (1)                                        * 
  *  David Jacob (2)                                               * 
  *  Maria Soriano (1,5)                                           * 
  *  Angel J. Perez-Jimenez (3)                                    * 
  *  Emilio SanFabian (3)                                          * 
  *  Jose Antonio Antonio Verges (4)                               * 
  *  Enrique Louis (5)                                             * 
  *  Wynand Dednam (5)                                             * 
  *                                                                * 
  * (1) Departamento de Fisica de la Materia Condensada            * 
  *     Universidad Autonoma de Madrid                             * 
  *     28049 Madrid (SPAIN)                                       * 
  * (2) Theory Department                                          * 
  *     Max-Planck-Institute for Microstructure Physics            * 
  *     Halle, 06120 (GERMANY)                                     * 
  * (3) Departamento de Quimica Fisica                             * 
  *     Universidad de Alicante                                    * 
  *     03690 Alicante (SPAIN)                                     * 
  * (4) Insto. de Ciencias de Materiales de Madrid (ICMM)          * 
  *     Consejo Superior de Investigacion y Ciencia (CSIC)         * 
  *     28049 Madrid (SPAIN)                                       * 
  * (5) Departamento de Fisica Aplicada                            * 
  *     Universidad de Alicante                                    * 
  *     03690 Alicante (SPAIN)                                     * 
  *                                                                * 
  ****************************************************************** 
 
  ****************************************************************** 
  *                                                                * 
  *              Initializing ANT.G09 modules                      * 
  *                                                                * 
  ****************************************************************** 
 
 Scanning input_Electrodo_Au_3_benzene.ant file for parameter specifications...
 Done.
 ****************************
 Basic calculation parameters
 ****************************
 ALPHA      =   1.500000000000000E-002
 NPULAY     =                      4
 CHARGEACC  =   1.000000000000000E-005  %
 FERMIACC   =   1.000000000000000E-005  %
 PACC       =   1.000000000000000E-007  %
 FULLACC    =  F
 MAX        =                     10
 SELFACC    =   1.000000000000000E-005
 SMALL      =   0.100000000000000     
 SMALLD     =   0.100000000000000       A
 BIASVOLT   =   0.000000000000000E+000  V
 QEXCESS    =   0.000000000000000E+000 electrons
 ETA        =   1.000000000000000E-010
 GLUE       =    1.00000000000000     
 FERMISTART =   -5.00000000000000       eV
 SOC        =  F
 SOCFAC     =                      1
 SOC_CFF_P  =   0.000000000000000E+000  eV
 SOC_CFF_D  =   0.000000000000000E+000  eV
 SOC_CFF_F  =   0.000000000000000E+000  eV
 THETA      =   0.000000000000000E+000  degrees
 PHI        =   0.000000000000000E+000  degrees
 SL         =   1.000000000000000E-004
 DMIMAG     =  F
 FMIXING    =  F
 ************************
 Bethe lattice parameters
 ************************
 TYPE1      = BETHE     
 TYPE2      = BETHE     
 BLPAR1     = lsda-6s             
 BLPAR2     = lsda-6s             
 NEMBED1    = ? 
 NEMBED2    = ? 
 NATOMEL1   = ? 
 NATOMEL2   = ? 
 OVERLAP    =   0.000000000000000E+000
 *************************
 Spin transport parameters
 *************************
 SWOFFSPL   =   1.000000000000000E-003
 NSPINLOCK  =                      0
 NALPHA     =                     -1
 NBETA      =                     -1
 DU         =  F
 UD         =  F
 DD         =  F
 MRSTART    =                      0
 SPINDEL    =  F
 SPINEDIT   =                      0
 SPINROT    =                      0
 ***********************
 Correlations parameters
 ***********************
 CORRBLOCKS =                      0
 PORTHO     =  F
 HYBFUNC    =  F
 DFT+U      =  F
 DIAGCORRBL =  F
 *****************
 Output parameters
 *****************
 HAMILTON   =  F
 MULLIKEN   =  T
 HTRANSM    =  F
 ESTEP      =   1.000000000000000E-002
 DOSENERGY  =   0.000000000000000E+000
 EW1        =   -3.00000000000000     
 EW2        =    3.00000000000000     
 LDOS_BEG   =                     14
 LDOS_END   =                     15
 RTM_BEG    =                      1
 RTM_END    =                      0
 NCHANNELS  =                      6
 LEADDOS    =  F
 ANT1D      =  F
 PRTHATOM   =                      1
 -------------------
 Initializing device
 -------------------
 ----------------------------------------------------------
 Analyzing cluster for the connection of the  Bethe Lattice
 ----------------------------------------------------------
 
 Atom type of lead 1: Au
 Atom type of lead 2: Au
 
    1   79  19.   22    1   22
    2   79  19.   22   23   44
    3   79  19.   22   45   66
    4   79  19.   22   67   88
    5   79  19.   22   89  110
    6   79  19.   22  111  132
    7   79  19.   22  133  154
    8   79  19.   22  155  176
    9   79  19.   22  177  198
   10   79  19.   22  199  220
   11    6   6.    9  221  229
   12    6   6.    9  230  238
   13    1   1.    2  239  240
   14    1   1.    2  241  242
   15    6   6.    9  243  251
   16    6   6.    9  252  260
   17    1   1.    2  261  262
   18    6   6.    9  263  271
   19    6   6.    9  272  280
   20    1   1.    2  281  282
   21    1   1.    2  283  284
   22    1   1.    2  285  286
   23   79  19.   22  287  308
   24   79  19.   22  309  330
   25   79  19.   22  331  352
   26   79  19.   22  353  374
   27   79  19.   22  375  396
   28   79  19.   22  397  418
   29   79  19.   22  419  440
   30   79  19.   22  441  462
   31   79  19.   22  463  484
   32   79  19.   22  485  506
 
  Center of charge:
  -0.644698  -0.327023  -4.434103
 
  Atoms in left electrode:                    10
   1  Au   4.643189  -1.250904 -16.516036
   2  Au   0.279887   1.844524 -16.061123
   3  Au  -0.180450  -3.498507 -15.804044
   4  Au  -4.083264   4.940009 -15.606322
   5  Au  -4.543752  -0.403079 -15.349130
   6  Au  -5.004108  -5.746128 -15.092052
   7  Au   2.147504  -0.807990 -11.782990
   8  Au  -2.215798   2.287457 -11.328096
   9  Au  -2.676136  -3.055593 -11.071017
  10  Au  -0.348182  -0.365057  -7.049963
 
  Atoms in molecule:                    12
  11  C   -2.137205  -1.271559  -4.506789
  12  C   -2.085804   1.371601  -4.506789
  13  H   -3.928098  -2.259697  -4.506789
  14  H   -3.837013   2.428525  -4.506789
  15  C    0.126120  -2.637831  -4.506789
  16  C    0.228921   2.648867  -4.506789
  17  H    0.086436  -4.682704  -4.506789
  18  C    2.441035  -1.360754  -4.506789
  19  C    2.492435   1.282595  -4.506789
  20  H    0.268795   4.693740  -4.506789
  21  H    4.192055  -2.417678  -4.506789
  22  H    4.283329   2.270544  -4.506789
 
  Atoms in right electrode:                    10
  23  Au  -0.135002  -6.265784   6.893626
  24  Au   2.549505  -1.616094   6.893626
  25  Au   5.234012   3.033596   6.893626
  26  Au  -2.819509  -1.616094   6.893626
  27  Au  -0.135002   3.033596   6.893626
  28  Au  -5.504016   3.033596   6.893626
  29  Au  -0.135002  -3.165990   2.509840
  30  Au   2.549505   1.483700   2.509840
  31  Au  -2.819509   1.483700   2.509840
  32  Au  -0.135002  -0.066197  -1.873928
 
 Last 3 atoms in line in electrode 2 !!!!
 Plane 1
 with normal vector ( -0.129240, -0.036544, -0.990940 )
 has    6 atoms:
    1    1   4.643189  -1.250904 -16.516036
    2    1   0.279887   1.844524 -16.061123
    3    1  -0.180450  -3.498507 -15.804044
    4    1  -4.083264   4.940009 -15.606322
    5    1  -4.543752  -0.403079 -15.349130
    6    1  -5.004108  -5.746128 -15.092052
 
 Plane 2
 with normal vector (  0.000000,  0.000000,  1.000000 )
 has    6 atoms:
   27    2  -5.504016   3.033596   6.893626
   28    2  -0.135002   3.033596   6.893626
   29    2  -2.819509  -1.616094   6.893626
   30    2   5.234012   3.033596   6.893626
   31    2   2.549505  -1.616094   6.893626
   32    2  -0.135002  -6.265784   6.893626
 
 Finding lattice directions in electrode 1 ....
 Near-neighbor distance at electrode 1 =    2.84115726908514     
Found         12  lattice directions
  -0.81267   0.57653   0.08473
   0.81267  -0.57653  -0.08473
  -0.89842  -0.41863   0.13261
   0.89842   0.41863  -0.13261
  -0.46483   0.08249   0.88155
   0.46483  -0.08249  -0.88155
  -0.08574  -0.99517   0.04788
   0.08574   0.99517  -0.04788
   0.34785  -0.49404   0.79682
  -0.34785   0.49404  -0.79682
   0.43358   0.50111   0.74893
  -0.43358  -0.50111  -0.74893
 Finding lattice directions in electrode 2 ....
 Near-neighbor distance at electrode 2 =    2.84116915335708     
Found         12  lattice directions
   0.50000   0.86602   0.00000
  -0.50000  -0.86602   0.00000
  -0.50000   0.86602   0.00000
   0.50000  -0.86602   0.00000
   0.00000   0.57735  -0.81650
   0.00000  -0.57735   0.81650
  -1.00000   0.00000   0.00000
   1.00000   0.00000   0.00000
  -0.50000  -0.28867  -0.81650
   0.50000   0.28867   0.81650
   0.50000  -0.28867  -0.81650
  -0.50000   0.28867   0.81650
 
 -----------------------------------------------------
 Inititalizing Bethe lattice for electrode No. 1
 -----------------------------------------------------
 
 Open file 
 /home/palacios/ANT.G/ANT.G-2.5.0/BLDAT/BL079.dat                               
                       to read Bethe lattice parameters.
 Reading lsda-6s                                            parameters.
 ERROR: NAOrbs read from BL data base not equal to NAOrbs of electrode plane in 
 cluster.
