 Entering Gaussian System, Link 0=g09
 Input=Ni4-Ni-Ni-Ni4.gjf
 Output=Ni4-Ni-Ni-Ni4.log
 Initial command:
 /home/palacios/gaussian/g09/l1.exe "/home/palacios/scratch/Gau-17815.inp" -scrdir="/home/palacios/scratch/"
 Entering Link 1 = /home/palacios/gaussian/g09/l1.exe PID=     17817.
  
 Copyright (c) 1988,1990,1992,1993,1995,1998,2003,2009,2013,
            Gaussian, Inc.  All Rights Reserved.
  
 This is part of the Gaussian(R) 09 program.  It is based on
 the Gaussian(R) 03 system (copyright 2003, Gaussian, Inc.),
 the Gaussian(R) 98 system (copyright 1998, Gaussian, Inc.),
 the Gaussian(R) 94 system (copyright 1995, Gaussian, Inc.),
 the Gaussian 92(TM) system (copyright 1992, Gaussian, Inc.),
 the Gaussian 90(TM) system (copyright 1990, Gaussian, Inc.),
 the Gaussian 88(TM) system (copyright 1988, Gaussian, Inc.),
 the Gaussian 86(TM) system (copyright 1986, Carnegie Mellon
 University), and the Gaussian 82(TM) system (copyright 1983,
 Carnegie Mellon University). Gaussian is a federally registered
 trademark of Gaussian, Inc.
  
 This software contains proprietary and confidential information,
 including trade secrets, belonging to Gaussian, Inc.
  
 This software is provided under written license and may be
 used, copied, transmitted, or stored only in accord with that
 written license.
  
 The following legend is applicable only to US Government
 contracts under FAR:
  
                    RESTRICTED RIGHTS LEGEND
  
 Use, reproduction and disclosure by the US Government is
 subject to restrictions as set forth in subparagraphs (a)
 and (c) of the Commercial Computer Software - Restricted
 Rights clause in FAR 52.227-19.
  
 Gaussian, Inc.
 340 Quinnipiac St., Bldg. 40, Wallingford CT 06492
  
  
 ---------------------------------------------------------------
 Warning -- This program may not be used in any manner that
 competes with the business of Gaussian, Inc. or will provide
 assistance to any competitor of Gaussian, Inc.  The licensee
 of this program is prohibited from giving any competitor of
 Gaussian, Inc. access to this program.  By using this program,
 the user acknowledges that Gaussian, Inc. is engaged in the
 business of creating and licensing software in the field of
 computational chemistry and represents and warrants to the
 licensee that it is not a competitor of Gaussian, Inc. and that
 it will not use this program in any manner prohibited above.
 ---------------------------------------------------------------
  

 Cite this work as:
 Gaussian 09, Revision D.01,
 M. J. Frisch, G. W. Trucks, H. B. Schlegel, G. E. Scuseria, 
 M. A. Robb, J. R. Cheeseman, G. Scalmani, V. Barone, B. Mennucci, 
 G. A. Petersson, H. Nakatsuji, M. Caricato, X. Li, H. P. Hratchian, 
 A. F. Izmaylov, J. Bloino, G. Zheng, J. L. Sonnenberg, M. Hada, 
 M. Ehara, K. Toyota, R. Fukuda, J. Hasegawa, M. Ishida, T. Nakajima, 
 Y. Honda, O. Kitao, H. Nakai, T. Vreven, J. A. Montgomery, Jr., 
 J. E. Peralta, F. Ogliaro, M. Bearpark, J. J. Heyd, E. Brothers, 
 K. N. Kudin, V. N. Staroverov, T. Keith, R. Kobayashi, J. Normand, 
 K. Raghavachari, A. Rendell, J. C. Burant, S. S. Iyengar, J. Tomasi, 
 M. Cossi, N. Rega, J. M. Millam, M. Klene, J. E. Knox, J. B. Cross, 
 V. Bakken, C. Adamo, J. Jaramillo, R. Gomperts, R. E. Stratmann, 
 O. Yazyev, A. J. Austin, R. Cammi, C. Pomelli, J. W. Ochterski, 
 R. L. Martin, K. Morokuma, V. G. Zakrzewski, G. A. Voth, 
 P. Salvador, J. J. Dannenberg, S. Dapprich, A. D. Daniels, 
 O. Farkas, J. B. Foresman, J. V. Ortiz, J. Cioslowski, 
 and D. J. Fox, Gaussian, Inc., Wallingford CT, 2013.
 
 ******************************************
 Gaussian 09:  ES64L-G09RevD.01 24-Apr-2013
                 7-Sep-2018 
 ******************************************
 %mem=1Gb
 %NProcShared=4
 Will use up to    4 processors via shared memory.
 %Subst L101 ../bin
 %Subst L502 ../bin
 ----------------------------------------------------
 #p ULSDA/gen pseudo=read Scf=(conver=6,dsymm,nosymm)
 ----------------------------------------------------
 1/38=1/1;
 2/12=2,17=6,18=5,40=1/2;
 3/5=7,11=2,16=1,17=8,25=1,30=1,74=205,116=2/1,2,3;
 4/9=2/1;
 5/5=2,6=6,17=200,38=5/2;
 6/7=2,8=2,9=2,10=2,28=1/1;
 99/5=1,9=1/99;
 Leave Link    1 at Fri Sep  7 12:45:26 2018, MaxMem=   134217728 cpu:         0.2
 (Enter ../bin/l101.exe)
 -------------
 Ni4-Ni-Ni-Ni4
 -------------
 Symbolic Z-matrix:
 Charge =  0 Multiplicity = 7
 Ni                    1.765     0.       -3.065 
 Ni                    0.       -1.765    -3.065 
 Ni                   -1.765     0.       -3.065 
 Ni                    0.        1.765    -3.065 
 Ni                    0.        0.       -1.3 
 Ni                    0.        0.        1.3 
 Ni                    0.        1.765     3.065 
 Ni                   -1.765     0.        3.065 
 Ni                    0.       -1.765     3.065 
 Ni                    1.765     0.        3.065 
 
 NAtoms=     10 NQM=       10 NQMF=       0 NMMI=      0 NMMIF=      0
                NMic=       0 NMicF=      0.
                    Isotopes and Nuclear Properties:
 (Nuclear quadrupole moments (NQMom) in fm**2, nuclear magnetic moments (NMagM)
  in nuclear magnetons)

  Atom         1           2           3           4           5           6           7           8           9          10
 IAtWgt=          58          58          58          58          58          58          58          58          58          58
 AtmWgt=  57.9353471  57.9353471  57.9353471  57.9353471  57.9353471  57.9353471  57.9353471  57.9353471  57.9353471  57.9353471
 NucSpn=           0           0           0           0           0           0           0           0           0           0
 AtZEff=   0.0000000   0.0000000   0.0000000   0.0000000   0.0000000   0.0000000   0.0000000   0.0000000   0.0000000   0.0000000
 NQMom=    0.0000000   0.0000000   0.0000000   0.0000000   0.0000000   0.0000000   0.0000000   0.0000000   0.0000000   0.0000000
 NMagM=    0.0000000   0.0000000   0.0000000   0.0000000   0.0000000   0.0000000   0.0000000   0.0000000   0.0000000   0.0000000
 AtZNuc=  28.0000000  28.0000000  28.0000000  28.0000000  28.0000000  28.0000000  28.0000000  28.0000000  28.0000000  28.0000000
 Leave Link  101 at Fri Sep  7 12:45:26 2018, MaxMem=   134217728 cpu:         0.3
 (Enter /home/palacios/gaussian/g09/l202.exe)
                          Input orientation:                          
 ---------------------------------------------------------------------
 Center     Atomic      Atomic             Coordinates (Angstroms)
 Number     Number       Type             X           Y           Z
 ---------------------------------------------------------------------
      1         28           0        1.765000    0.000000   -3.065000
      2         28           0        0.000000   -1.765000   -3.065000
      3         28           0       -1.765000    0.000000   -3.065000
      4         28           0        0.000000    1.765000   -3.065000
      5         28           0        0.000000    0.000000   -1.300000
      6         28           0        0.000000    0.000000    1.300000
      7         28           0        0.000000    1.765000    3.065000
      8         28           0       -1.765000    0.000000    3.065000
      9         28           0        0.000000   -1.765000    3.065000
     10         28           0        1.765000    0.000000    3.065000
 ---------------------------------------------------------------------
                    Distance matrix (angstroms):
                    1          2          3          4          5
     1  Ni   0.000000
     2  Ni   2.496087   0.000000
     3  Ni   3.530000   2.496087   0.000000
     4  Ni   2.496087   3.530000   2.496087   0.000000
     5  Ni   2.496087   2.496087   2.496087   2.496087   0.000000
     6  Ni   4.708338   4.708338   4.708338   4.708338   2.600000
     7  Ni   6.618712   7.073740   6.618712   6.130000   4.708338
     8  Ni   7.073740   6.618712   6.130000   6.618712   4.708338
     9  Ni   6.618712   6.130000   6.618712   7.073740   4.708338
    10  Ni   6.130000   6.618712   7.073740   6.618712   4.708338
                    6          7          8          9         10
     6  Ni   0.000000
     7  Ni   2.496087   0.000000
     8  Ni   2.496087   2.496087   0.000000
     9  Ni   2.496087   3.530000   2.496087   0.000000
    10  Ni   2.496087   2.496087   3.530000   2.496087   0.000000
 Stoichiometry    Ni10(7)
 Framework group  D4H[C4(Ni.Ni),2SGV(Ni4)]
 Deg. of freedom     3
 Full point group                 D4H     NOp  16
 Largest Abelian subgroup         D2H     NOp   8
 Largest concise Abelian subgroup D2H     NOp   8
                         Standard orientation:                         
 ---------------------------------------------------------------------
 Center     Atomic      Atomic             Coordinates (Angstroms)
 Number     Number       Type             X           Y           Z
 ---------------------------------------------------------------------
      1         28           0        0.000000    1.765000    3.065000
      2         28           0       -1.765000    0.000000    3.065000
      3         28           0        0.000000   -1.765000    3.065000
      4         28           0        1.765000    0.000000    3.065000
      5         28           0        0.000000    0.000000    1.300000
      6         28           0        0.000000    0.000000   -1.300000
      7         28           0        1.765000    0.000000   -3.065000
      8         28           0        0.000000   -1.765000   -3.065000
      9         28           0       -1.765000    0.000000   -3.065000
     10         28           0        0.000000    1.765000   -3.065000
 ---------------------------------------------------------------------
 Rotational constants (GHZ):      0.3500211      0.0958644      0.0958644
 Leave Link  202 at Fri Sep  7 12:45:26 2018, MaxMem=   134217728 cpu:         0.0
 (Enter /home/palacios/gaussian/g09/l301.exe)
 General basis read from cards:  (5D, 7F)
 Centers:       1      2      3      4      5      6      7      8      9     10
 S 4 1.0
     Exponent=  2.3620000000D+00 Coefficients=  1.0376000000D-02
     Exponent=  8.0790000000D-01 Coefficients= -2.3838400000D-01
     Exponent=  1.2750000000D-01 Coefficients=  6.6522900000D-01
     Exponent=  4.3980000000D-02 Coefficients=  4.7746100000D-01
 D 5 1.0
     Exponent=  2.8730000000D+01 Coefficients=  6.5209000000D-02
     Exponent=  7.7260000000D+00 Coefficients=  2.8056500000D-01
     Exponent=  2.4960000000D+00 Coefficients=  4.4350200000D-01
     Exponent=  9.1660000000D-01 Coefficients=  3.5962700000D-01
     Exponent=  3.1050000000D-01 Coefficients=  2.0531300000D-01
 ****
 ======================================================================================================
                                       Pseudopotential Parameters
 ======================================================================================================
  Center     Atomic      Valence      Angular      Power
  Number     Number     Electrons     Momentum     of R      Exponent        Coefficient   SO-Coeffient
 ======================================================================================================
    1         28           10
                                      D and up 
                                                     2        0.6047000       -0.39820800    0.00000000
                                                     2        1.9370000       -3.11549500    0.00000000
                                                     2        5.4946000      -11.88599500    0.00000000
                                                     2       18.0895000      -32.50999500    0.00000000
                                                     1       53.1894000      -11.93502800    0.00000000
                                      S - D
                                                     2        0.9379000       43.79937700    0.00000000
                                                     2        1.0665000     -122.48827800    0.00000000
                                                     2        1.3201000      170.38290700    0.00000000
                                                     2        1.6045000      -88.12361600    0.00000000
                                                     1        2.2698000        8.00157500    0.00000000
                                                     0        1.7094000        3.67468300    0.00000000
                                      P - D
                                                     2        0.2653000        0.02744700    0.00000000
                                                     2        1.5092000       94.02155300    0.00000000
                                                     2        1.8128000     -187.11548900    0.00000000
                                                     2        2.2120000      122.75196500    0.00000000
                                                     1        5.4856000       12.05337400    0.00000000
                                                     0        7.5189000        5.36371300    0.00000000
    2         28           10
                                      D and up 
                                                     2        0.6047000       -0.39820800    0.00000000
                                                     2        1.9370000       -3.11549500    0.00000000
                                                     2        5.4946000      -11.88599500    0.00000000
                                                     2       18.0895000      -32.50999500    0.00000000
                                                     1       53.1894000      -11.93502800    0.00000000
                                      S - D
                                                     2        0.9379000       43.79937700    0.00000000
                                                     2        1.0665000     -122.48827800    0.00000000
                                                     2        1.3201000      170.38290700    0.00000000
                                                     2        1.6045000      -88.12361600    0.00000000
                                                     1        2.2698000        8.00157500    0.00000000
                                                     0        1.7094000        3.67468300    0.00000000
                                      P - D
                                                     2        0.2653000        0.02744700    0.00000000
                                                     2        1.5092000       94.02155300    0.00000000
                                                     2        1.8128000     -187.11548900    0.00000000
                                                     2        2.2120000      122.75196500    0.00000000
                                                     1        5.4856000       12.05337400    0.00000000
                                                     0        7.5189000        5.36371300    0.00000000
    3         28           10
                                      D and up 
                                                     2        0.6047000       -0.39820800    0.00000000
                                                     2        1.9370000       -3.11549500    0.00000000
                                                     2        5.4946000      -11.88599500    0.00000000
                                                     2       18.0895000      -32.50999500    0.00000000
                                                     1       53.1894000      -11.93502800    0.00000000
                                      S - D
                                                     2        0.9379000       43.79937700    0.00000000
                                                     2        1.0665000     -122.48827800    0.00000000
                                                     2        1.3201000      170.38290700    0.00000000
                                                     2        1.6045000      -88.12361600    0.00000000
                                                     1        2.2698000        8.00157500    0.00000000
                                                     0        1.7094000        3.67468300    0.00000000
                                      P - D
                                                     2        0.2653000        0.02744700    0.00000000
                                                     2        1.5092000       94.02155300    0.00000000
                                                     2        1.8128000     -187.11548900    0.00000000
                                                     2        2.2120000      122.75196500    0.00000000
                                                     1        5.4856000       12.05337400    0.00000000
                                                     0        7.5189000        5.36371300    0.00000000
    4         28           10
                                      D and up 
                                                     2        0.6047000       -0.39820800    0.00000000
                                                     2        1.9370000       -3.11549500    0.00000000
                                                     2        5.4946000      -11.88599500    0.00000000
                                                     2       18.0895000      -32.50999500    0.00000000
                                                     1       53.1894000      -11.93502800    0.00000000
                                      S - D
                                                     2        0.9379000       43.79937700    0.00000000
                                                     2        1.0665000     -122.48827800    0.00000000
                                                     2        1.3201000      170.38290700    0.00000000
                                                     2        1.6045000      -88.12361600    0.00000000
                                                     1        2.2698000        8.00157500    0.00000000
                                                     0        1.7094000        3.67468300    0.00000000
                                      P - D
                                                     2        0.2653000        0.02744700    0.00000000
                                                     2        1.5092000       94.02155300    0.00000000
                                                     2        1.8128000     -187.11548900    0.00000000
                                                     2        2.2120000      122.75196500    0.00000000
                                                     1        5.4856000       12.05337400    0.00000000
                                                     0        7.5189000        5.36371300    0.00000000
    5         28           10
                                      D and up 
                                                     2        0.6047000       -0.39820800    0.00000000
                                                     2        1.9370000       -3.11549500    0.00000000
                                                     2        5.4946000      -11.88599500    0.00000000
                                                     2       18.0895000      -32.50999500    0.00000000
                                                     1       53.1894000      -11.93502800    0.00000000
                                      S - D
                                                     2        0.9379000       43.79937700    0.00000000
                                                     2        1.0665000     -122.48827800    0.00000000
                                                     2        1.3201000      170.38290700    0.00000000
                                                     2        1.6045000      -88.12361600    0.00000000
                                                     1        2.2698000        8.00157500    0.00000000
                                                     0        1.7094000        3.67468300    0.00000000
                                      P - D
                                                     2        0.2653000        0.02744700    0.00000000
                                                     2        1.5092000       94.02155300    0.00000000
                                                     2        1.8128000     -187.11548900    0.00000000
                                                     2        2.2120000      122.75196500    0.00000000
                                                     1        5.4856000       12.05337400    0.00000000
                                                     0        7.5189000        5.36371300    0.00000000
    6         28           10
                                      D and up 
                                                     2        0.6047000       -0.39820800    0.00000000
                                                     2        1.9370000       -3.11549500    0.00000000
                                                     2        5.4946000      -11.88599500    0.00000000
                                                     2       18.0895000      -32.50999500    0.00000000
                                                     1       53.1894000      -11.93502800    0.00000000
                                      S - D
                                                     2        0.9379000       43.79937700    0.00000000
                                                     2        1.0665000     -122.48827800    0.00000000
                                                     2        1.3201000      170.38290700    0.00000000
                                                     2        1.6045000      -88.12361600    0.00000000
                                                     1        2.2698000        8.00157500    0.00000000
                                                     0        1.7094000        3.67468300    0.00000000
                                      P - D
                                                     2        0.2653000        0.02744700    0.00000000
                                                     2        1.5092000       94.02155300    0.00000000
                                                     2        1.8128000     -187.11548900    0.00000000
                                                     2        2.2120000      122.75196500    0.00000000
                                                     1        5.4856000       12.05337400    0.00000000
                                                     0        7.5189000        5.36371300    0.00000000
    7         28           10
                                      D and up 
                                                     2        0.6047000       -0.39820800    0.00000000
                                                     2        1.9370000       -3.11549500    0.00000000
                                                     2        5.4946000      -11.88599500    0.00000000
                                                     2       18.0895000      -32.50999500    0.00000000
                                                     1       53.1894000      -11.93502800    0.00000000
                                      S - D
                                                     2        0.9379000       43.79937700    0.00000000
                                                     2        1.0665000     -122.48827800    0.00000000
                                                     2        1.3201000      170.38290700    0.00000000
                                                     2        1.6045000      -88.12361600    0.00000000
                                                     1        2.2698000        8.00157500    0.00000000
                                                     0        1.7094000        3.67468300    0.00000000
                                      P - D
                                                     2        0.2653000        0.02744700    0.00000000
                                                     2        1.5092000       94.02155300    0.00000000
                                                     2        1.8128000     -187.11548900    0.00000000
                                                     2        2.2120000      122.75196500    0.00000000
                                                     1        5.4856000       12.05337400    0.00000000
                                                     0        7.5189000        5.36371300    0.00000000
    8         28           10
                                      D and up 
                                                     2        0.6047000       -0.39820800    0.00000000
                                                     2        1.9370000       -3.11549500    0.00000000
                                                     2        5.4946000      -11.88599500    0.00000000
                                                     2       18.0895000      -32.50999500    0.00000000
                                                     1       53.1894000      -11.93502800    0.00000000
                                      S - D
                                                     2        0.9379000       43.79937700    0.00000000
                                                     2        1.0665000     -122.48827800    0.00000000
                                                     2        1.3201000      170.38290700    0.00000000
                                                     2        1.6045000      -88.12361600    0.00000000
                                                     1        2.2698000        8.00157500    0.00000000
                                                     0        1.7094000        3.67468300    0.00000000
                                      P - D
                                                     2        0.2653000        0.02744700    0.00000000
                                                     2        1.5092000       94.02155300    0.00000000
                                                     2        1.8128000     -187.11548900    0.00000000
                                                     2        2.2120000      122.75196500    0.00000000
                                                     1        5.4856000       12.05337400    0.00000000
                                                     0        7.5189000        5.36371300    0.00000000
    9         28           10
                                      D and up 
                                                     2        0.6047000       -0.39820800    0.00000000
                                                     2        1.9370000       -3.11549500    0.00000000
                                                     2        5.4946000      -11.88599500    0.00000000
                                                     2       18.0895000      -32.50999500    0.00000000
                                                     1       53.1894000      -11.93502800    0.00000000
                                      S - D
                                                     2        0.9379000       43.79937700    0.00000000
                                                     2        1.0665000     -122.48827800    0.00000000
                                                     2        1.3201000      170.38290700    0.00000000
                                                     2        1.6045000      -88.12361600    0.00000000
                                                     1        2.2698000        8.00157500    0.00000000
                                                     0        1.7094000        3.67468300    0.00000000
                                      P - D
                                                     2        0.2653000        0.02744700    0.00000000
                                                     2        1.5092000       94.02155300    0.00000000
                                                     2        1.8128000     -187.11548900    0.00000000
                                                     2        2.2120000      122.75196500    0.00000000
                                                     1        5.4856000       12.05337400    0.00000000
                                                     0        7.5189000        5.36371300    0.00000000
   10         28           10
                                      D and up 
                                                     2        0.6047000       -0.39820800    0.00000000
                                                     2        1.9370000       -3.11549500    0.00000000
                                                     2        5.4946000      -11.88599500    0.00000000
                                                     2       18.0895000      -32.50999500    0.00000000
                                                     1       53.1894000      -11.93502800    0.00000000
                                      S - D
                                                     2        0.9379000       43.79937700    0.00000000
                                                     2        1.0665000     -122.48827800    0.00000000
                                                     2        1.3201000      170.38290700    0.00000000
                                                     2        1.6045000      -88.12361600    0.00000000
                                                     1        2.2698000        8.00157500    0.00000000
                                                     0        1.7094000        3.67468300    0.00000000
                                      P - D
                                                     2        0.2653000        0.02744700    0.00000000
                                                     2        1.5092000       94.02155300    0.00000000
                                                     2        1.8128000     -187.11548900    0.00000000
                                                     2        2.2120000      122.75196500    0.00000000
                                                     1        5.4856000       12.05337400    0.00000000
                                                     0        7.5189000        5.36371300    0.00000000
 ======================================================================================================
 Ernie: Thresh=  0.10000D-02 Tol=  0.10000D-05 Strict=F.
 There are    14 symmetry adapted cartesian basis functions of AG  symmetry.
 There are     5 symmetry adapted cartesian basis functions of B1G symmetry.
 There are     8 symmetry adapted cartesian basis functions of B2G symmetry.
 There are     8 symmetry adapted cartesian basis functions of B3G symmetry.
 There are     5 symmetry adapted cartesian basis functions of AU  symmetry.
 There are    14 symmetry adapted cartesian basis functions of B1U symmetry.
 There are     8 symmetry adapted cartesian basis functions of B2U symmetry.
 There are     8 symmetry adapted cartesian basis functions of B3U symmetry.
 There are    11 symmetry adapted basis functions of AG  symmetry.
 There are     5 symmetry adapted basis functions of B1G symmetry.
 There are     7 symmetry adapted basis functions of B2G symmetry.
 There are     7 symmetry adapted basis functions of B3G symmetry.
 There are     5 symmetry adapted basis functions of AU  symmetry.
 There are    11 symmetry adapted basis functions of B1U symmetry.
 There are     7 symmetry adapted basis functions of B2U symmetry.
 There are     7 symmetry adapted basis functions of B3U symmetry.
    60 basis functions,   340 primitive gaussians,    70 cartesian basis functions
    53 alpha electrons       47 beta electrons
       nuclear repulsion energy       637.8490858883 Hartrees.
 IExCor=  205 DFT=T Ex=S Corr=VWN ExCW=0 ScaHFX=  0.000000
 ScaDFX=  1.000000  1.000000  1.000000  1.000000 ScalE2=  1.000000  1.000000
 IRadAn=      0 IRanWt=     -1 IRanGd=            0 ICorTp=0 IEmpDi=  4
 NAtoms=   10 NActive=   10 NUniq=    2 SFac= 4.00D+00 NAtFMM=   60 NAOKFM=F Big=F
 Integral buffers will be    131072 words long.
 Raffenetti 2 integral format.
 Two-electron integral symmetry is turned on.
 Leave Link  301 at Fri Sep  7 12:45:27 2018, MaxMem=   134217728 cpu:         0.2
 (Enter /home/palacios/gaussian/g09/l302.exe)
 NPDir=0 NMtPBC=     1 NCelOv=     1 NCel=       1 NClECP=     1 NCelD=      1
         NCelK=      1 NCelE2=     1 NClLst=     1 CellRange=     0.0.
 One-electron integrals computed using PRISM.
 One-electron integral symmetry used in STVInt
  16 Symmetry operations used in ECPInt.
 ECPInt:  NShTT=     210 NPrTT=    4255 LenC2=     211 LenP2D=    3395.
 LDataN:  DoStor=T MaxTD1= 4 Len=   56
 NBasis=    60 RedAO= T EigKep=  2.14D-01  NBF=    11     5     7     7     5    11     7     7
 NBsUse=    60 1.00D-06 EigRej= -1.00D+00 NBFU=    11     5     7     7     5    11     7     7
 Precomputing XC quadrature grid using
 IXCGrd= 4 IRadAn=           0 IRanWt=          -1 IRanGd=           0 AccXCQ= 0.00D+00.
 Generated NRdTot=       0 NPtTot=           0 NUsed=           0 NTot=          32
 NSgBfM=    70    70    70    70    70 MxSgAt=    10 MxSgA2=    10.
 Leave Link  302 at Fri Sep  7 12:45:27 2018, MaxMem=   134217728 cpu:         1.5
 (Enter /home/palacios/gaussian/g09/l303.exe)
 DipDrv:  MaxL=1.
 Leave Link  303 at Fri Sep  7 12:45:27 2018, MaxMem=   134217728 cpu:         0.1
 (Enter /home/palacios/gaussian/g09/l401.exe)
 SCF N**3 symmetry information disabled.
 ExpMin= 4.40D-02 ExpMax= 2.87D+01 ExpMxC= 2.87D+01 IAcc=2 IRadAn=         4 AccDes= 0.00D+00
 Harris functional with IExCor=  205 and IRadAn=       4 diagonalized for initial guess.
 HarFok:  IExCor=  205 AccDes= 0.00D+00 IRadAn=         4 IDoV= 1 UseB2=F ITyADJ=14
 ICtDFT=  3500011 ScaDFX=  1.000000  1.000000  1.000000  1.000000
 FoFCou: FMM=F IPFlag=           0 FMFlag=      100000 FMFlg1=           0
         NFxFlg=           0 DoJE=T BraDBF=F KetDBF=T FulRan=T
         wScrn=  0.000000 ICntrl=     500 IOpCl=  0 I1Cent=   200000004 NGrid=           0
         NMat0=    1 NMatS0=      1 NMatT0=    0 NMatD0=    1 NMtDS0=    0 NMtDT0=    0
 Petite list used in FoFCou.
 Harris En= -404.460060860710    
 JPrj=0 DoOrth=F DoCkMO=F.
 Initial guess orbital symmetries:
 Alpha Orbitals:
       Occupied  (A1G) (EU) (EU) (A2U) (EG) (EG) (B2G) (B1U) (B1G)
                 (B2U) (A2U) (B2G) (A1G) (B1U) (EU) (EU) (EG) (EG)
                 (A1G) (A2U) (A1G) (EU) (EU) (EG) (EG) (B2G) (B1U)
                 (EU) (EU) (EG) (EG) (A2U) (EU) (EU) (EG) (EG)
                 (B1G) (B2U) (A1U) (A2G) (EU) (EU) (B1G) (B2U)
                 (EG) (EG) (B1G) (B2U) (A2G) (A1U) (A1G) (A2U)
                 (EU)
       Virtual   (EU) (A1G) (EG) (EG) (A2U) (B1G) (B2U)
 Beta  Orbitals:
       Occupied  (A1G) (EU) (EU) (A2U) (EG) (EG) (B2G) (B1U) (B1G)
                 (B2U) (A2U) (B2G) (A1G) (B1U) (EU) (EU) (EG) (EG)
                 (A1G) (A2U) (A1G) (EU) (EU) (EG) (EG) (B2G) (B1U)
                 (EU) (EU) (EG) (EG) (A2U) (EU) (EU) (EG) (EG)
                 (B1G) (B2U) (A1U) (A2G) (EU) (EU) (B1G) (B2U)
                 (EG) (EG) (B1G)
       Virtual   (B2U) (A2G) (A1U) (A1G) (A2U) (EU) (EU) (A1G)
                 (EG) (EG) (A2U) (B1G) (B2U)
 Initial guess <Sx>= 0.0000 <Sy>= 0.0000 <Sz>= 3.0000 <S**2>=12.0000 S= 3.0000
 Leave Link  401 at Fri Sep  7 12:45:27 2018, MaxMem=   134217728 cpu:         0.5
 (Enter ../bin/l502.exe)
 UHF open shell SCF:
 Using DIIS extrapolation, IDIIS=  1040.
 Integral symmetry usage will be decided dynamically.
 Keep J ints in memory in symmetry-blocked form, NReq=2728162.
 IVT=       34910 IEndB=       34910 NGot=   134217728 MDV=   133965174
 LenX=   133965174 LenY=   133959833
 Requested convergence on RMS density matrix=1.00D-06 within 128 cycles.
 Requested convergence on MAX density matrix=1.00D-04.
 Requested convergence on             energy=1.00D-04.
 No special actions if energy rises.
 FoFCou: FMM=F IPFlag=           0 FMFlag=           0 FMFlg1=           0
         NFxFlg=           0 DoJE=F BraDBF=F KetDBF=F FulRan=T
         wScrn=  0.000000 ICntrl=     600 IOpCl=  0 I1Cent=           0 NGrid=           0
         NMat0=    1 NMatS0=   1830 NMatT0=    0 NMatD0=    1 NMtDS0=    0 NMtDT0=    0
 Petite list used in FoFCou.

 Cycle   1  Pass 1  IDiag  1:
 
  ****************************************************************** 
  ***                                                            *** 
  ***                      A l i c a n t e                       *** 
  ***                      N a n o                               *** 
  ***                      T r a n s p o r t                     *** 
  ***                      G 0 9                                 *** 
  ***                                                            *** 
  ****************************************************************** 
  ***                     Version: 2.3.4                         *** 
  ****************************************************************** 
  *  Copyright (c) by                                              * 
  *                                                                * 
  *  Juan Jose Palacios (1)                                        * 
  *  David Jacob (2)                                               * 
  *  Maria Soriano (1,5)                                           * 
  *  Angel J. Perez-Jimenez (3)                                    * 
  *  Emilio SanFabian (3)                                          * 
  *  Jose Antonio Antonio Verges (4)                               * 
  *  Enrique Louis (5)                                             * 
  *                                                                * 
  * (1) Departamento de Fisica de la Materia Condensada            * 
  *     Universidad Autonoma de Madrid                             * 
  *     28049 Madrid (SPAIN)                                       * 
  * (2) Theory Department                                          * 
  *     Max-Planck-Institute for Microstructure Physics            * 
  *     Halle, 06120 (GERMANY)                                     * 
  * (3) Departamento de Quimica Fisica                             * 
  *     Universidad de Alicante                                    * 
  *     03690 Alicante (SPAIN)                                     * 
  * (4) Insto. de Ciencias de Materiales de Madrid (ICMM)          * 
  *     Consejo Superior de Investigacion y Ciencia (CSIC)         * 
  *     28049 Madrid (SPAIN)                                       * 
  * (5) Departamento de Fisica Aplicada                            * 
  *     Universidad de Alicante                                    * 
  *     03690 Alicante (SPAIN)                                     * 
  *                                                                * 
  ****************************************************************** 
 
  ****************************************************************** 
  *                                                                * 
  *              Initializing ANT.G09 modules                      * 
  *                                                                * 
  ****************************************************************** 
 
 Scanning Ni4-Ni-Ni-Ni4.ant file for parameter specifications...
 Done.
 ****************************
 Basic calculation parameters
 ****************************
 ALPHA      =    5.0000000000000003E-002
 NPULAY     =                         5
 CHARGEACC  =    1.0000000000000001E-005  %
 FERMIACC   =    1.0000000000000001E-005  %
 PACC       =    9.9999999999999995E-008  %
 FULLACC    =   F
 MAX        =                        10
 SELFACC    =    9.9999999999999995E-007
 SMALL      =    0.1000000000000000     
 SMALLD     =    0.1000000000000000       A
 BIASVOLT   =     0.000000000000000       V
 QEXCESS    =     0.000000000000000      electrons
 ETA        =    1.0000000000000000E-010
 GLUE       =     1.000000000000000     
 FERMISTART =    -5.000000000000000       eV
 SOC        =   F
 SOCFAC     =                         1
 SOC_CFF_P  =     0.000000000000000       eV
 SOC_CFF_D  =     0.000000000000000       eV
 SOC_CFF_F  =     0.000000000000000       eV
 THETA      =     0.000000000000000       degrees
 PHI        =     0.000000000000000       degrees
 SL         =    1.0000000000000000E-003
 DMIMAG     =   F
 FMIXING    =   F
 ************************
 Bethe lattice parameters
 ************************
 TYPE1      = BETHE     
 TYPE2      = BETHE     
 BLPAR1     = Papacon-sd          
 BLPAR2     = Papacon-sd          
 NEMBED1    = ? 
 NEMBED2    = ? 
 NATOMEL1   = ? 
 NATOMEL2   = ? 
 OVERLAP    =     0.000000000000000     
 *************************
 Spin transport parameters
 *************************
 SWOFFSPL   =    1.0000000000000000E-003
 NSPINLOCK  =                         0
 NALPHA     =                        -1
 NBETA      =                        -1
 DU         =   F
 UD         =   F
 DD         =   F
 MRSTART    =                         0
 SPINDEL    =   F
 SPINEDIT   =                         0
 SPINROT    =                         0
 ***********************
 Correlations parameters
 ***********************
 CORRBLOCKS =                         0
 PORTHO     =   F
 HYBFUNC    =   F
 DFT+U      =   F
 DIAGCORRBL =   F
 *****************
 Output parameters
 *****************
 HAMILTON   =   F
 MULLIKEN   =   F
 HTRANSM    =   F
 ESTEP      =    1.0000000000000000E-002
 DOSENERGY  =     0.000000000000000     
 EW1        =    -3.000000000000000     
 EW2        =     3.000000000000000     
 LDOS_BEG   =                         5
 LDOS_END   =                         6
 RTM_BEG    =                         1
 RTM_END    =                         0
 NCHANNELS  =                         0
 LEADDOS    =   F
 ANT1D      =   F
 -------------------
 Initializing device
 -------------------
 ----------------------------------------------------------
 Analyzing cluster for the connection of the  Bethe Lattice
 ----------------------------------------------------------
 
 Atom type of lead 1: Ni
 Atom type of lead 2: Ni
 
    1   28  10.    6    1    6
    2   28  10.    6    7   12
    3   28  10.    6   13   18
    4   28  10.    6   19   24
    5   28  10.    6   25   30
    6   28  10.    6   31   36
    7   28  10.    6   37   42
    8   28  10.    6   43   48
    9   28  10.    6   49   54
   10   28  10.    6   55   60
 
  Center of charge:
   0.000000   0.000000   0.000000
 
  Atoms in left electrode:                        5
   1  Ni   0.000000   3.335367   5.792011
   2  Ni  -3.335367   0.000000   5.792011
   3  Ni   0.000000  -3.335367   5.792011
   4  Ni   3.335367   0.000000   5.792011
   5  Ni   0.000000   0.000000   2.456644
 
  Atoms in molecule:                        0
 
  Atoms in right electrode:                        5
   6  Ni   0.000000   3.335367  -5.792011
   7  Ni  -3.335367   0.000000  -5.792011
   8  Ni   0.000000  -3.335367  -5.792011
   9  Ni   3.335367   0.000000  -5.792011
  10  Ni   0.000000   0.000000  -2.456644
 
 Plane 1
 with normal vector (  0.000000,  0.000000,  1.000000 )
 has    4 atoms:
    1    1   0.000000   3.335367   5.792011
    2    1  -3.335367   0.000000   5.792011
    3    1   0.000000  -3.335367   5.792011
    4    1   3.335367   0.000000   5.792011
 
 Plane 2
 with normal vector (  0.000000,  0.000000, -1.000000 )
 has    4 atoms:
    7    2   3.335367   0.000000  -5.792011
    8    2   0.000000  -3.335367  -5.792011
    9    2  -3.335367   0.000000  -5.792011
   10    2   0.000000   3.335367  -5.792011
 
 Finding lattice directions in electrode 1 ....
 Near-neighbor distance at electrode 1 =     2.496100104448168     
Found         12  lattice directions
  -0.70711  -0.70711   0.00000
   0.70711   0.70711   0.00000
   0.70711  -0.70711   0.00000
  -0.70711   0.70711   0.00000
   0.00000  -0.70711  -0.70711
   0.00000   0.70711   0.70711
   0.70711   0.00000  -0.70711
  -0.70711   0.00000   0.70711
   0.00000   0.70711  -0.70711
   0.00000  -0.70711   0.70711
  -0.70711   0.00000  -0.70711
   0.70711   0.00000   0.70711
 Finding lattice directions in electrode 2 ....
 Near-neighbor distance at electrode 2 =     2.496100104448168     
Found         12  lattice directions
  -0.70711  -0.70711   0.00000
   0.70711   0.70711   0.00000
   0.70711  -0.70711   0.00000
  -0.70711   0.70711   0.00000
   0.00000  -0.70711   0.70711
   0.00000   0.70711  -0.70711
   0.70711   0.00000   0.70711
  -0.70711   0.00000  -0.70711
   0.00000   0.70711   0.70711
   0.00000  -0.70711  -0.70711
  -0.70711   0.00000   0.70711
   0.70711   0.00000  -0.70711
 
 -----------------------------------------------------
 Inititalizing Bethe lattice for electrode No. 1
 -----------------------------------------------------
 
 Open file 
 /home/palacios/ANT.G/pgi/ANT.G-2.4.1/BLDAT/BL028.dat                                                
  to read Bethe lattice parameters.
 Reading Papacon-sd                                         parameters.
 es        =   0.1056093448686473     
 edd       =  -0.1243334200508393     
 edt       =  -0.1243334200508393     
 sss       =  -0.1030332419052912     
 sds       =  -3.7607911533326481E-002
 pds       =   5.5496810342579250E-002
 pdp       =  -2.3485409083813549E-002
 dds       =  -3.4820425342845900E-002
 ddp       =   2.5599190083128161E-002
 ddd       =  -5.6870005292460890E-003
 es        =   0.1350694887335478     
 edd       =  -1.9697235493986082E-002
 edt       =  -1.9697235493986082E-002
 sss       =  -0.1030332419052912     
 sds       =  -3.7607911533326481E-002
 pds       =   5.5496810342579250E-002
 pdp       =  -2.3485409083813549E-002
 dds       =  -3.4820425342845900E-002
 ddp       =   2.5599190083128161E-002
 ddd       =  -5.6870005292460890E-003
 S_sss     =   0.1817704879067281     
 S_sds     =   8.1324419773221729E-004
 S_pds     =   2.9995797509112253E-002
 S_pdp     =   9.9776143600185819E-003
 S_dds     =   2.4512922333620474E-003
 S_ddp     =  -2.2269541560923777E-002
 S_ddd     =   6.7977240753691369E-003
 Done.
 Setting Fermi level to zero for Lead                         1
 Searching boundaries [EMin, EMax] such that Int[EMin, EMax] DOS(E) = 
                       12  ( Number of spin orbitals ).
 EMin=   -10.00000000000000        Charge=   1.3244311043436596E-005
 EMax=    10.00000000000000        Charge=    11.93370481470174     
 Now searching for Fermi energy...
 Secant method:
 Bethe lattice Fermi energy =     1.037388743350706     
 
 -----------------------------------------------------
 Inititalizing Bethe lattice for electrode No. 2
 -----------------------------------------------------
 
 Open file 
 /home/palacios/ANT.G/pgi/ANT.G-2.4.1/BLDAT/BL028.dat                                                
  to read Bethe lattice parameters.
 Reading Papacon-sd                                         parameters.
 es        =   0.1056093448686473     
 edd       =  -0.1243334200508393     
 edt       =  -0.1243334200508393     
 sss       =  -0.1030332419052912     
 sds       =  -3.7607911533326481E-002
 pds       =   5.5496810342579250E-002
 pdp       =  -2.3485409083813549E-002
 dds       =  -3.4820425342845900E-002
 ddp       =   2.5599190083128161E-002
 ddd       =  -5.6870005292460890E-003
 es        =   0.1350694887335478     
 edd       =  -1.9697235493986082E-002
 edt       =  -1.9697235493986082E-002
 sss       =  -0.1030332419052912     
 sds       =  -3.7607911533326481E-002
 pds       =   5.5496810342579250E-002
 pdp       =  -2.3485409083813549E-002
 dds       =  -3.4820425342845900E-002
 ddp       =   2.5599190083128161E-002
 ddd       =  -5.6870005292460890E-003
 S_sss     =   0.1817704879067281     
 S_sds     =   8.1324419773221729E-004
 S_pds     =   2.9995797509112253E-002
 S_pdp     =   9.9776143600185819E-003
 S_dds     =   2.4512922333620474E-003
 S_ddp     =  -2.2269541560923777E-002
 S_ddd     =   6.7977240753691369E-003
 Done.
 Setting Fermi level to zero for Lead                         2
 Searching boundaries [EMin, EMax] such that Int[EMin, EMax] DOS(E) = 
                       12  ( Number of spin orbitals ).
 EMin=   -10.00000000000000        Charge=   1.3244311043436596E-005
 EMax=    10.00000000000000        Charge=    11.93370481470174     
 Now searching for Fermi energy...
 Secant method:
 Bethe lattice Fermi energy =     1.037388743350706     
 ---------------------------------------------------
  Details on device and contacting atoms -----------
 ---------------------------------------------------
 NEmbed(1) =                        4
 NEmbed(2) =                        4
 Number of electrons in neutral reduced device
 NCDEl =                       100
 First and last orbital in reduced device
 NCDAO1 =                         1
 NCDAO2 =                        60
 ---------------------------------------------------
 -------------------------------------------------------------------------------------------
 Starting calculation with density matrix from file  
 P.Ni4-Ni-Ni-Ni4.dat                               
 -------------------------------------------------------------------------------------------
 Tr[P*S] of initial guess =    99.99993107197609     
 --------------------------------
 E= -402.097564044479    
 -------------------------------------------------------------------------
 Computing the density matrix at cycle:                        1
 -------------------------------------------------------------------------
 EMin=   -35.51501190909315     
 EMax=    35.51501190909315     
 --------------
 Charge Control
 --------------
 Searching energy boundaries [EMin, EMax] such that
 Total Integrated Spectral Weight (TISW)= 120
 EMin=   -35.51501  EMax=    35.51501  TISW= 119.99995
 --------------------------------------------------
 MULLER method
 Integration of P has needed a max no. of loops   8
 Integration of P has needed a max no. of loops   8
 Integration of P has needed a max no. of loops   8
 Integration of P has needed a max no. of loops   8
 Integration of P has needed a max no. of loops   8
 Integration of P has needed a max no. of loops   8
 k =                        0
  P0 =     3.029239803717642        1.5395262352313921E-002
  P1 =     3.030239803717642       -7.6743317406169353E-004
  P2 =     3.031239803717642       -1.6940688384522673E-002
 Integration of P has needed a max no. of loops   8
 Integration of P has needed a max no. of loops   8
 k =                        1
  P0 =     3.030239803717642       -7.6743317406169353E-004
  P1 =     3.029239803717642        1.5395262352313921E-002
  P2 =     3.030192336731043       -4.1026737562788185E-010
 Integration of P has needed a max no. of loops   8
 Integration of P has needed a max no. of loops   8
 -----------------------------------------------
 Fermi energy=  -3.03019  +/-  0.00000
 
 Number of alpha electrons:   55.84926
 Number of beta electrons:    44.15074
 Total number of electrons:   100.00000
 -----------------------------------------------
 DIIS: error= 4.73D-03 at cycle   1 NSaved=   1.
 NSaved= 1 IEnMin= 1 EnMin= -402.097564044479     IErMin= 1 ErrMin= 4.73D-03
 ErrMax= 4.73D-03  0.00D+00 EMaxC= 1.00D-01 BMatC= 3.61D-03 BMatP= 3.61D-03
 IDIUse=3 WtCom= 9.53D-01 WtEn= 4.73D-02
 Coeff-Com:  0.100D+01
 Coeff-En:   0.100D+01
 Coeff:      0.100D+01
 GapD=    2.000 DampG=2.000 DampE=1.000 DampFc=2.0000 IDamp=-1.
 RMSDP=5.24D-02 MaxDP=8.21D-01              OVMax= 0.00D+00

 Cycle   2  Pass 1  IDiag  1:
 E= -402.097563975798     Delta-E=        0.000000068681 Rises=F Damp=F
 -------------------------------------------------------------------------
 Computing the density matrix at cycle:                        2
 -------------------------------------------------------------------------
 EMin=   -35.51496088740610     
 EMax=    35.51496088740610     
 MULLER method
 Integration of P has needed a max no. of loops   8
 Integration of P has needed a max no. of loops   8
 Integration of P has needed a max no. of loops   8
 Integration of P has needed a max no. of loops   8
 Integration of P has needed a max no. of loops   8
 Integration of P has needed a max no. of loops   8
 k =                        0
  P0 =     3.029192336705667        1.5561436322428790E-002
  P1 =     3.030192336705666       -6.0135461166055393E-004
  P2 =     3.031192336705666       -1.6774704054981271E-002
 Integration of P has needed a max no. of loops   8
 Integration of P has needed a max no. of loops   8
 k =                        1
  P0 =     3.030192336705666       -6.0135461166055393E-004
  P1 =     3.029192336705667        1.5561436322428790E-002
  P2 =     3.030155142290496       -3.2173375075217336E-010
 Integration of P has needed a max no. of loops   8
 Integration of P has needed a max no. of loops   8
 -----------------------------------------------
 Fermi energy=  -3.03016  +/-  0.00000
 
 Number of alpha electrons:   55.84927
 Number of beta electrons:    44.15073
 Total number of electrons:   100.00000
 -----------------------------------------------
 RMSDP=4.34D-07 MaxDP=4.52D-06 DE= 6.87D-08 OVMax= 0.00D+00

 SCF Done:  E(US-VWN) =  -402.097563976     A.U. after    2 cycles
            NFock=  2  Conv=0.43D-06     -V/T= 1.5139
 <Sx>= 0.0000 <Sy>= 0.0000 <Sz>= 3.0000 <S**2>=12.0000 S= 3.0000
 <L.S>=  0.00000000000    
 KE= 7.824920913811D+02 PE=-2.795227881127D+03 EE= 9.727891398819D+02
 Annihilation of the first spin contaminant:
 S**2 before annihilation    16.5081,   after    27.5712
 -------------------------------------------------------------------------
 Computing the density matrix at cycle:                     1000
 -------------------------------------------------------------------------
 EMin=   -35.51496088740610     
 EMax=    35.51496088740610     
 MULLER method
 Integration of P has needed a max no. of loops   8
 Integration of P has needed a max no. of loops   8
 Integration of P has needed a max no. of loops   8
 Integration of P has needed a max no. of loops   8
 Integration of P has needed a max no. of loops   8
 Integration of P has needed a max no. of loops   8
 k =                        0
  P0 =     3.029155142270596        1.6162399218870860E-002
  P1 =     3.030155142270596        1.4210854715202004E-014
  P2 =     3.031155142270596       -1.6172955794971244E-002
 Integration of P has needed a max no. of loops   8
 Integration of P has needed a max no. of loops   8
 k =                        1
  P0 =     3.030155142270596        1.4210854715202004E-014
  P1 =     3.031155142270596       -1.6172955794971244E-002
  P2 =     3.030155142270597         0.000000000000000     
 Integration of P has needed a max no. of loops   8
 Integration of P has needed a max no. of loops   8
 -----------------------------------------------
 Fermi energy=  -3.03016  +/-  0.00000
 
 Number of alpha electrons:   55.84927
 Number of beta electrons:    44.15073
 Total number of electrons:   100.00000
 -----------------------------------------------
 
 ****************************************** 
 *                                        * 
 *        ANT.G09 final analysis          * 
 *                                        * 
 ****************************************** 
 
 -------------------------------------
 ---  Self-consistent Hamiltonian  ---
 -------------------------------------
 ---------
 Left lead
 ---------
 Atom:   1   -5.024981
 Atom:   2   -5.024981
 Atom:   3   -5.024981
 Atom:   4   -5.024981
 Atom:   5   -4.935234
 ----------
 Right lead
 ----------
 Atom:   6   -4.935234
 Atom:   7   -5.024981
 Atom:   8   -5.024981
 Atom:   9   -5.024981
 Atom:  10   -5.024981
 
 --------------------------------
 --- Calculating Transmission ---
 ---  (and DOS if required)   ---
 --------------------------------
 
 -------------------------------------
 ---  Mulliken population analysis ---
 -------------------------------------
 ----------------------
 Charges in electrode 1
 ----------------------
 Atom:   1  El.dens:  9.9766  Sp.dens:   1.1672
 Atom:   2  El.dens:  9.9766  Sp.dens:   1.1672
 Atom:   3  El.dens:  9.9766  Sp.dens:   1.1672
 Atom:   4  El.dens:  9.9766  Sp.dens:   1.1672
 Atom:   5  El.dens: 10.0937  Sp.dens:   1.1803
 ----------------------------------------------------
 Total num. of electrons in electrode 1:    49.99999999999990     
 Total spin in electrode 1:    5.849271478865291     
 ----------------------------------------------------
 ----------------------------------------------------
 Total num. of electrons in molecule:    0.000000000000000     
 Total spin in molecule:    0.000000000000000     
 ----------------------------------------------------
 ----------------------
 Charges in electrode 2
 ----------------------
 Atom:   6  El.dens: 10.0937  Sp.dens:   1.1803
 Atom:   7  El.dens:  9.9766  Sp.dens:   1.1672
 Atom:   8  El.dens:  9.9766  Sp.dens:   1.1672
 Atom:   9  El.dens:  9.9766  Sp.dens:   1.1672
 Atom:  10  El.dens:  9.9766  Sp.dens:   1.1672
 ----------------------------------------------------
 Total num. of electrons in electrode 2:    50.00000000000009     
 Total spin in electrode 2:    5.849271478865114     
 ----------------------------------------------------
  ----------------- End of ANT.G09 ------------------- 
 Leave Link  502 at Fri Sep  7 12:45:49 2018, MaxMem=   134217728 cpu:        88.5
 (Enter /home/palacios/gaussian/g09/l601.exe)
 Copying SCF densities to generalized density rwf, IOpCl= 1 IROHF=0.

 **********************************************************************

            Population analysis using the SCF density.

 **********************************************************************

 Orbital symmetries:
 Alpha Orbitals:
       Occupied  (A1G) (EU) (EU) (A2U) (EG) (EG) (B2G) (B1U) (B1G)
                 (B2U) (A2U) (B2G) (A1G) (B1U) (EU) (EU) (EG) (EG)
                 (A1G) (A2U) (A1G) (EU) (EU) (EG) (EG) (B2G) (B1U)
                 (EU) (EU) (EG) (EG) (A2U) (EU) (EU) (EG) (EG)
                 (B1G) (B2U) (A1U) (A2G) (EU) (EU) (B1G) (B2U)
                 (EG) (EG) (B1G) (B2U) (A2G) (A1U) (A1G) (A2U)
                 (EU)
       Virtual   (EU) (A1G) (EG) (EG) (A2U) (B1G) (B2U)
 Beta  Orbitals:
       Occupied  (A1G) (EU) (EU) (A2U) (EG) (EG) (B2G) (B1U) (B1G)
                 (B2U) (A2U) (B2G) (A1G) (B1U) (EU) (EU) (EG) (EG)
                 (A1G) (A2U) (A1G) (EU) (EU) (EG) (EG) (B2G) (B1U)
                 (EU) (EU) (EG) (EG) (A2U) (EU) (EU) (EG) (EG)
                 (B1G) (B2U) (A1U) (A2G) (EU) (EU) (B1G) (B2U)
                 (EG) (EG) (B1G)
       Virtual   (B2U) (A2G) (A1U) (A1G) (A2U) (EU) (EU) (A1G)
                 (EG) (EG) (A2U) (B1G) (B2U)
 Unable to determine electronic state:  partially filled degenerate orbitals.
 Alpha  occ. eigenvalues --   -0.49506  -0.48736  -0.48736  -0.48390  -0.48104
 Alpha  occ. eigenvalues --   -0.48104  -0.47852  -0.47816  -0.47105  -0.46969
 Alpha  occ. eigenvalues --   -0.46465  -0.46452  -0.46442  -0.46391  -0.46365
 Alpha  occ. eigenvalues --   -0.46365  -0.46346  -0.46346  -0.46230  -0.46049
 Alpha  occ. eigenvalues --   -0.45375  -0.45062  -0.45062  -0.45039  -0.45039
 Alpha  occ. eigenvalues --   -0.44949  -0.44878  -0.44705  -0.44705  -0.44594
 Alpha  occ. eigenvalues --   -0.44594  -0.44564  -0.44078  -0.44078  -0.44063
 Alpha  occ. eigenvalues --   -0.44063  -0.44043  -0.44042  -0.43904  -0.43904
 Alpha  occ. eigenvalues --   -0.43671  -0.43671  -0.43649  -0.43643  -0.43417
 Alpha  occ. eigenvalues --   -0.43417  -0.43382  -0.43352  -0.42939  -0.42939
 Alpha  occ. eigenvalues --   -0.34597  -0.34091  -0.23376
 Alpha virt. eigenvalues --   -0.23376  -0.23240  -0.22923  -0.22923  -0.06853
 Alpha virt. eigenvalues --   -0.06330  -0.05865
  Beta  occ. eigenvalues --   -0.49506  -0.48736  -0.48736  -0.48390  -0.48104
  Beta  occ. eigenvalues --   -0.48104  -0.47852  -0.47816  -0.47105  -0.46969
  Beta  occ. eigenvalues --   -0.46465  -0.46452  -0.46442  -0.46391  -0.46365
  Beta  occ. eigenvalues --   -0.46365  -0.46346  -0.46346  -0.46230  -0.46049
  Beta  occ. eigenvalues --   -0.45375  -0.45062  -0.45062  -0.45039  -0.45039
  Beta  occ. eigenvalues --   -0.44949  -0.44878  -0.44705  -0.44705  -0.44594
  Beta  occ. eigenvalues --   -0.44594  -0.44564  -0.44078  -0.44078  -0.44063
  Beta  occ. eigenvalues --   -0.44063  -0.44043  -0.44042  -0.43904  -0.43904
  Beta  occ. eigenvalues --   -0.43671  -0.43671  -0.43649  -0.43643  -0.43417
  Beta  occ. eigenvalues --   -0.43417  -0.43382
  Beta virt. eigenvalues --   -0.43352  -0.42939  -0.42939  -0.34597  -0.34091
  Beta virt. eigenvalues --   -0.23376  -0.23376  -0.23240  -0.22923  -0.22923
  Beta virt. eigenvalues --   -0.06853  -0.06330  -0.05865
          Condensed to atoms (all electrons):
               1          2          3          4          5          6
     1  Ni  10.362799  -0.145323  -0.005873  -0.145323  -0.079858  -0.011582
     2  Ni  -0.145323  10.362799  -0.145323  -0.005873  -0.079858  -0.011582
     3  Ni  -0.005873  -0.145323  10.362799  -0.145323  -0.079858  -0.011582
     4  Ni  -0.145323  -0.005873  -0.145323  10.362799  -0.079858  -0.011582
     5  Ni  -0.079858  -0.079858  -0.079858  -0.079858  10.403467   0.055968
     6  Ni  -0.011582  -0.011582  -0.011582  -0.011582   0.055968  10.403467
     7  Ni   0.000444   0.000236   0.000444   0.000610  -0.011582  -0.079858
     8  Ni   0.000236   0.000444   0.000610   0.000444  -0.011582  -0.079858
     9  Ni   0.000444   0.000610   0.000444   0.000236  -0.011582  -0.079858
    10  Ni   0.000610   0.000444   0.000236   0.000444  -0.011582  -0.079858
               7          8          9         10
     1  Ni   0.000444   0.000236   0.000444   0.000610
     2  Ni   0.000236   0.000444   0.000610   0.000444
     3  Ni   0.000444   0.000610   0.000444   0.000236
     4  Ni   0.000610   0.000444   0.000236   0.000444
     5  Ni  -0.011582  -0.011582  -0.011582  -0.011582
     6  Ni  -0.079858  -0.079858  -0.079858  -0.079858
     7  Ni  10.362799  -0.145323  -0.005873  -0.145323
     8  Ni  -0.145323  10.362799  -0.145323  -0.005873
     9  Ni  -0.005873  -0.145323  10.362799  -0.145323
    10  Ni  -0.145323  -0.005873  -0.145323  10.362799
          Atomic-Atomic Spin Densities.
               1          2          3          4          5          6
     1  Ni   1.207874  -0.008903  -0.006626  -0.008903  -0.013395  -0.003325
     2  Ni  -0.008903   1.207874  -0.008903  -0.006626  -0.013395  -0.003325
     3  Ni  -0.006626  -0.008903   1.207874  -0.008903  -0.013395  -0.003325
     4  Ni  -0.008903  -0.006626  -0.008903   1.207874  -0.013395  -0.003325
     5  Ni  -0.013395  -0.013395  -0.013395  -0.013395   1.191911   0.055303
     6  Ni  -0.003325  -0.003325  -0.003325  -0.003325   0.055303   1.191911
     7  Ni   0.000119   0.000062   0.000119   0.000232  -0.003325  -0.013395
     8  Ni   0.000062   0.000119   0.000232   0.000119  -0.003325  -0.013395
     9  Ni   0.000119   0.000232   0.000119   0.000062  -0.003325  -0.013395
    10  Ni   0.000232   0.000119   0.000062   0.000119  -0.003325  -0.013395
               7          8          9         10
     1  Ni   0.000119   0.000062   0.000119   0.000232
     2  Ni   0.000062   0.000119   0.000232   0.000119
     3  Ni   0.000119   0.000232   0.000119   0.000062
     4  Ni   0.000232   0.000119   0.000062   0.000119
     5  Ni  -0.003325  -0.003325  -0.003325  -0.003325
     6  Ni  -0.013395  -0.013395  -0.013395  -0.013395
     7  Ni   1.207874  -0.008903  -0.006626  -0.008903
     8  Ni  -0.008903   1.207874  -0.008903  -0.006626
     9  Ni  -0.006626  -0.008903   1.207874  -0.008903
    10  Ni  -0.008903  -0.006626  -0.008903   1.207874
 Mulliken charges and spin densities:
               1          2
     1  Ni   0.023426   1.167253
     2  Ni   0.023426   1.167253
     3  Ni   0.023426   1.167253
     4  Ni   0.023426   1.167253
     5  Ni  -0.093676   1.180335
     6  Ni  -0.093676   1.180335
     7  Ni   0.023426   1.167253
     8  Ni   0.023426   1.167253
     9  Ni   0.023426   1.167253
    10  Ni   0.023426   1.167253
 Sum of Mulliken charges =   0.00006  11.69870
 Mulliken charges and spin densities with hydrogens summed into heavy atoms:
               1          2
     1  Ni   0.023426   1.167253
     2  Ni   0.023426   1.167253
     3  Ni   0.023426   1.167253
     4  Ni   0.023426   1.167253
     5  Ni  -0.093676   1.180335
     6  Ni  -0.093676   1.180335
     7  Ni   0.023426   1.167253
     8  Ni   0.023426   1.167253
     9  Ni   0.023426   1.167253
    10  Ni   0.023426   1.167253
 Electronic spatial extent (au):  <R**2>=           3946.8780
 Charge=              0.0001 electrons
 Dipole moment (field-independent basis, Debye):
    X=              0.0000    Y=              0.0000    Z=              0.0000  Tot=              0.0000
 Quadrupole moment (field-independent basis, Debye-Ang):
   XX=           -116.4103   YY=           -116.4103   ZZ=           -106.6813
   XY=              0.0000   XZ=              0.0000   YZ=              0.0000
 Traceless Quadrupole moment (field-independent basis, Debye-Ang):
   XX=             -3.2430   YY=             -3.2430   ZZ=              6.4860
   XY=              0.0000   XZ=              0.0000   YZ=              0.0000
 Octapole moment (field-independent basis, Debye-Ang**2):
  XXX=              0.0000  YYY=              0.0000  ZZZ=              0.0000  XYY=              0.0000
  XXY=              0.0000  XXZ=              0.0000  XZZ=              0.0000  YZZ=              0.0000
  YYZ=              0.0000  XYZ=              0.0000
 Hexadecapole moment (field-independent basis, Debye-Ang**3):
 XXXX=          -1122.7323 YYYY=          -1122.7323 ZZZZ=          -5369.7758 XXXY=              0.0000
 XXXZ=              0.0000 YYYX=              0.0000 YYYZ=              0.0000 ZZZX=              0.0000
 ZZZY=              0.0000 XXYY=           -352.5035 XXZZ=          -1149.3921 YYZZ=          -1149.3921
 XXYZ=              0.0000 YYXZ=              0.0000 ZZXY=              0.0000
 N-N= 6.378490858883D+02 E-N=-2.795228261099D+03  KE= 7.824922142257D+02
                          Isotropic Fermi Contact Couplings
        Atom                 a.u.       MegaHertz       Gauss      10(-4) cm-1
     1  Ni(61)             0.00000       0.00002       0.00001       0.00001
     2  Ni(61)             0.00000       0.00002       0.00001       0.00001
     3  Ni(61)             0.00000       0.00002       0.00001       0.00001
     4  Ni(61)             0.00000       0.00002       0.00001       0.00001
     5  Ni(61)            -0.00006       0.00397       0.00142       0.00132
     6  Ni(61)            -0.00006       0.00397       0.00142       0.00132
     7  Ni(61)             0.00000       0.00002       0.00001       0.00001
     8  Ni(61)             0.00000       0.00002       0.00001       0.00001
     9  Ni(61)             0.00000       0.00002       0.00001       0.00001
    10  Ni(61)             0.00000       0.00002       0.00001       0.00001
 --------------------------------------------------------
       Center         ----  Spin Dipole Couplings  ----
                      3XX-RR        3YY-RR        3ZZ-RR
 --------------------------------------------------------
     1   Atom       -0.004568      0.049602     -0.045034
     2   Atom        0.049602     -0.004568     -0.045034
     3   Atom       -0.004568      0.049602     -0.045034
     4   Atom        0.049602     -0.004568     -0.045034
     5   Atom       -0.067102     -0.067102      0.134205
     6   Atom       -0.067102     -0.067102      0.134205
     7   Atom        0.049602     -0.004568     -0.045034
     8   Atom       -0.004568      0.049602     -0.045034
     9   Atom        0.049602     -0.004568     -0.045034
    10   Atom       -0.004568      0.049602     -0.045034
 --------------------------------------------------------
                        XY            XZ            YZ
 --------------------------------------------------------
     1   Atom        0.000000      0.000000      0.188503
     2   Atom        0.000000     -0.188503      0.000000
     3   Atom        0.000000      0.000000     -0.188503
     4   Atom        0.000000      0.188503      0.000000
     5   Atom        0.000000      0.000000      0.000000
     6   Atom        0.000000      0.000000      0.000000
     7   Atom        0.000000     -0.188503      0.000000
     8   Atom        0.000000      0.000000      0.188503
     9   Atom        0.000000      0.188503      0.000000
    10   Atom        0.000000      0.000000     -0.188503
 --------------------------------------------------------


 ---------------------------------------------------------------------------------
              Anisotropic Spin Dipole Couplings in Principal Axis System
 ---------------------------------------------------------------------------------

       Atom             a.u.   MegaHertz   Gauss  10(-4) cm-1        Axes

              Baa    -0.1921     9.173     3.273     3.060  0.0000 -0.6150  0.7885
     1 Ni(61) Bbb    -0.0046     0.218     0.078     0.073  1.0000  0.0000  0.0000
              Bcc     0.1966    -9.392    -3.351    -3.133  0.0000  0.7885  0.6150
 
              Baa    -0.1921     9.173     3.273     3.060  0.6150  0.0000  0.7885
     2 Ni(61) Bbb    -0.0046     0.218     0.078     0.073  0.0000  1.0000  0.0000
              Bcc     0.1966    -9.392    -3.351    -3.133  0.7885  0.0000 -0.6150
 
              Baa    -0.1921     9.173     3.273     3.060  0.0000  0.6150  0.7885
     3 Ni(61) Bbb    -0.0046     0.218     0.078     0.073  1.0000  0.0000  0.0000
              Bcc     0.1966    -9.392    -3.351    -3.133  0.0000  0.7885 -0.6150
 
              Baa    -0.1921     9.173     3.273     3.060 -0.6150  0.0000  0.7885
     4 Ni(61) Bbb    -0.0046     0.218     0.078     0.073  0.0000  1.0000  0.0000
              Bcc     0.1966    -9.392    -3.351    -3.133  0.7885  0.0000  0.6150
 
              Baa    -0.0671     3.205     1.144     1.069  1.0000  0.0000  0.0000
     5 Ni(61) Bbb    -0.0671     3.205     1.144     1.069  0.0000  1.0000  0.0000
              Bcc     0.1342    -6.410    -2.287    -2.138  0.0000  0.0000  1.0000
 
              Baa    -0.0671     3.205     1.144     1.069  1.0000  0.0000  0.0000
     6 Ni(61) Bbb    -0.0671     3.205     1.144     1.069  0.0000  1.0000  0.0000
              Bcc     0.1342    -6.410    -2.287    -2.138  0.0000  0.0000  1.0000
 
              Baa    -0.1921     9.173     3.273     3.060  0.6150  0.0000  0.7885
     7 Ni(61) Bbb    -0.0046     0.218     0.078     0.073  0.0000  1.0000  0.0000
              Bcc     0.1966    -9.392    -3.351    -3.133  0.7885  0.0000 -0.6150
 
              Baa    -0.1921     9.173     3.273     3.060  0.0000 -0.6150  0.7885
     8 Ni(61) Bbb    -0.0046     0.218     0.078     0.073  1.0000  0.0000  0.0000
              Bcc     0.1966    -9.392    -3.351    -3.133  0.0000  0.7885  0.6150
 
              Baa    -0.1921     9.173     3.273     3.060 -0.6150  0.0000  0.7885
     9 Ni(61) Bbb    -0.0046     0.218     0.078     0.073  0.0000  1.0000  0.0000
              Bcc     0.1966    -9.392    -3.351    -3.133  0.7885  0.0000  0.6150
 
              Baa    -0.1921     9.173     3.273     3.060  0.0000  0.6150  0.7885
    10 Ni(61) Bbb    -0.0046     0.218     0.078     0.073  1.0000  0.0000  0.0000
              Bcc     0.1966    -9.392    -3.351    -3.133  0.0000  0.7885 -0.6150
 

 ---------------------------------------------------------------------------------

 No NMR shielding tensors so no spin-rotation constants.
 Leave Link  601 at Fri Sep  7 12:45:50 2018, MaxMem=   134217728 cpu:         1.1
 (Enter /home/palacios/gaussian/g09/l9999.exe)
 1\1\GINC-ASUS-WORK\SP\USVWN\Gen\Ni10(7)\PALACIOS\07-Sep-2018\0\\#p ULS
 DA/gen pseudo=read Scf=(conver=6,dsymm,nosymm)\\Ni4-Ni-Ni-Ni4\\0,7\Ni,
 0,1.765,0.,-3.065\Ni,0,0.,-1.765,-3.065\Ni,0,-1.765,0.,-3.065\Ni,0,0.,
 1.765,-3.065\Ni,0,0.,0.,-1.3\Ni,0,0.,0.,1.3\Ni,0,0.,1.765,3.065\Ni,0,-
 1.765,0.,3.065\Ni,0,0.,-1.765,3.065\Ni,0,1.765,0.,3.065\\Version=ES64L
 -G09RevD.01\HF=-402.097564\S2=12.\S2-1=0.\S2A=27.571176\RMSD=4.344e-07
 \Dipole=0.,0.,0.\Quadrupole=-2.4111068,-2.4111068,4.8222136,0.,0.,0.\P
 G=D04H [C4(Ni1.Ni1),2SGV(Ni4)]\\@


 A ROPE OVER THE TOP OF A FENCE HAS THE SAME LENGTH ON EACH SIDE.
 WEIGHS 1/3 POUND PER FOOT.  ON ONE END HANGS A MONKEY HOLDING A
 BANANA, AND ON THE OTHER END A WEIGHT EQUAL TO THE WEIGHT
 OF THE MONKEY.  THE BANANA WEIGHS TWO OUNCES PER INCH.
 THE ROPE IS AS LONG AS THE AGE OF THE MONKEY, 
 AND THE WEIGHT OF THE MONKEY (IN OUNCES) IS AS MUCH
 AS THE AGE OF THE MONKEY'S MOTHER.  THE COMBINED AGES OF MONKEY
 AND MOTHER ARE THIRTY YEARS.  HALF THE WEIGHT OF THE MONKEY,
  PLUS THE WEIGHT OF THE BANANA, IS ONE FOURTH AS MUCH AS THE WEIGHT
 OF THE WEIGHT AND THE ROPE.
 THE MONKEY'S MOTHER IS HALF AS OLD AS THE MONKEY WILL BE
 WHEN IT IS 3 TIMES AS OLD AS ITS MOTHER WAS WHEN
 SHE WAS HALF AS OLD AS THE MONKEY WILL BE WHEN IT IS
 AS OLD AS ITS MOTHER WILL BE WHEN SHE IS 4 TIMES AS
 OLD AS THE MONKEY WAS WHEN IT WAS TWICE AS OLD AS 
 ITS MOTHER WAS WHEN SHE WAS ONE THIRD AS OLD AS THE
 MONKEY WAS WHEN IT WAS AS OLD AS ITS MOTHER WAS WHEN 
 SHE WAS 3 TIMES AS OLD AS THE MONKEY WAS WHEN IT WAS AS OLD AS ITS
 MOTHER WAS WHEN SHE WAS 3 TIMES AS OLD AS THE MONKEY 
 WAS WHEN IT WAS ONE FOURTH WAS OLD AS IT IS NOW.

 HOW LONG IS THE BANANA?
 Job cpu time:       0 days  0 hours  1 minutes 32.6 seconds.
 File lengths (MBytes):  RWF=      5 Int=      0 D2E=      0 Chk=      1 Scr=      1
 Normal termination of Gaussian 09 at Fri Sep  7 12:45:50 2018.
