 Entering Gaussian System, Link 0=g09
 Input=Ni4-Ni-Ni-Ni4.gjf
 Output=Ni4-Ni-Ni-Ni4.log
 Initial command:
 /home/palacios/Gaussian09/intel/v.D01/g09/l1.exe "/scratch/palacios/Ni4-Ni-Ni-Ni4-202995/Gau-28153.inp" -scrdir="/scratch/palacios/Ni4-Ni-Ni-Ni4-202995/"
 Entering Link 1 = /home/palacios/Gaussian09/intel/v.D01/g09/l1.exe PID=     28154.
  
 Copyright (c) 1988,1990,1992,1993,1995,1998,2003,2009,2013,
            Gaussian, Inc.  All Rights Reserved.
  
 This is part of the Gaussian(R) 09 program.  It is based on
 the Gaussian(R) 03 system (copyright 2003, Gaussian, Inc.),
 the Gaussian(R) 98 system (copyright 1998, Gaussian, Inc.),
 the Gaussian(R) 94 system (copyright 1995, Gaussian, Inc.),
 the Gaussian 92(TM) system (copyright 1992, Gaussian, Inc.),
 the Gaussian 90(TM) system (copyright 1990, Gaussian, Inc.),
 the Gaussian 88(TM) system (copyright 1988, Gaussian, Inc.),
 the Gaussian 86(TM) system (copyright 1986, Carnegie Mellon
 University), and the Gaussian 82(TM) system (copyright 1983,
 Carnegie Mellon University). Gaussian is a federally registered
 trademark of Gaussian, Inc.
  
 This software contains proprietary and confidential information,
 including trade secrets, belonging to Gaussian, Inc.
  
 This software is provided under written license and may be
 used, copied, transmitted, or stored only in accord with that
 written license.
  
 The following legend is applicable only to US Government
 contracts under FAR:
  
                    RESTRICTED RIGHTS LEGEND
  
 Use, reproduction and disclosure by the US Government is
 subject to restrictions as set forth in subparagraphs (a)
 and (c) of the Commercial Computer Software - Restricted
 Rights clause in FAR 52.227-19.
  
 Gaussian, Inc.
 340 Quinnipiac St., Bldg. 40, Wallingford CT 06492
  
  
 ---------------------------------------------------------------
 Warning -- This program may not be used in any manner that
 competes with the business of Gaussian, Inc. or will provide
 assistance to any competitor of Gaussian, Inc.  The licensee
 of this program is prohibited from giving any competitor of
 Gaussian, Inc. access to this program.  By using this program,
 the user acknowledges that Gaussian, Inc. is engaged in the
 business of creating and licensing software in the field of
 computational chemistry and represents and warrants to the
 licensee that it is not a competitor of Gaussian, Inc. and that
 it will not use this program in any manner prohibited above.
 ---------------------------------------------------------------
  

 Cite this work as:
 Gaussian 09, Revision D.01,
 M. J. Frisch, G. W. Trucks, H. B. Schlegel, G. E. Scuseria, 
 M. A. Robb, J. R. Cheeseman, G. Scalmani, V. Barone, B. Mennucci, 
 G. A. Petersson, H. Nakatsuji, M. Caricato, X. Li, H. P. Hratchian, 
 A. F. Izmaylov, J. Bloino, G. Zheng, J. L. Sonnenberg, M. Hada, 
 M. Ehara, K. Toyota, R. Fukuda, J. Hasegawa, M. Ishida, T. Nakajima, 
 Y. Honda, O. Kitao, H. Nakai, T. Vreven, J. A. Montgomery, Jr., 
 J. E. Peralta, F. Ogliaro, M. Bearpark, J. J. Heyd, E. Brothers, 
 K. N. Kudin, V. N. Staroverov, T. Keith, R. Kobayashi, J. Normand, 
 K. Raghavachari, A. Rendell, J. C. Burant, S. S. Iyengar, J. Tomasi, 
 M. Cossi, N. Rega, J. M. Millam, M. Klene, J. E. Knox, J. B. Cross, 
 V. Bakken, C. Adamo, J. Jaramillo, R. Gomperts, R. E. Stratmann, 
 O. Yazyev, A. J. Austin, R. Cammi, C. Pomelli, J. W. Ochterski, 
 R. L. Martin, K. Morokuma, V. G. Zakrzewski, G. A. Voth, 
 P. Salvador, J. J. Dannenberg, S. Dapprich, A. D. Daniels, 
 O. Farkas, J. B. Foresman, J. V. Ortiz, J. Cioslowski, 
 and D. J. Fox, Gaussian, Inc., Wallingford CT, 2013.
 
 ******************************************
 Gaussian 09:  ES64L-G09RevD.01 24-Apr-2013
                29-Dec-2020 
 ******************************************
 %mem=1Gb
 %NProcShared=4
 Will use up to    4 processors via shared memory.
 %Subst L101 .
 %Subst L502 .
 -----------------------------------------------------
 #p ULSDA/gen pseudo=read Scf=(conver=6,nodamp,nosymm)
 -----------------------------------------------------
 1/38=1/1;
 2/12=2,17=6,18=5,40=1/2;
 3/5=7,11=2,16=1,17=8,25=1,30=1,74=205,116=2/1,2,3;
 4/9=2/1;
 5/5=2,6=6,18=-2,38=5/2;
 6/7=2,8=2,9=2,10=2,28=1/1;
 99/5=1,9=1/99;
 Leave Link    1 at Tue Dec 29 13:45:59 2020, MaxMem=   134217728 cpu:         0.1
 (Enter ./l101.exe)
 -------------
 Ni4-Ni-Ni-Ni4
 -------------
 Symbolic Z-matrix:
 Charge =  0 Multiplicity =15
 Ni                    1.765     0.       -3.065 
 Ni                    0.       -1.765    -3.065 
 Ni                   -1.765     0.       -3.065 
 Ni                    0.        1.765    -3.065 
 Ni                    0.        0.       -1.3 
 Ni                    0.        0.        1.3 
 Ni                    0.        1.765     3.065 
 Ni                   -1.765     0.        3.065 
 Ni                    0.       -1.765     3.065 
 Ni                    1.765     0.        3.065 
 
 NAtoms=     10 NQM=       10 NQMF=       0 NMMI=      0 NMMIF=      0
                NMic=       0 NMicF=      0.
                    Isotopes and Nuclear Properties:
 (Nuclear quadrupole moments (NQMom) in fm**2, nuclear magnetic moments (NMagM)
  in nuclear magnetons)

  Atom         1           2           3           4           5           6           7           8           9          10
 IAtWgt=          58          58          58          58          58          58          58          58          58          58
 AtmWgt=  57.9353471  57.9353471  57.9353471  57.9353471  57.9353471  57.9353471  57.9353471  57.9353471  57.9353471  57.9353471
 NucSpn=           0           0           0           0           0           0           0           0           0           0
 AtZEff=   0.0000000   0.0000000   0.0000000   0.0000000   0.0000000   0.0000000   0.0000000   0.0000000   0.0000000   0.0000000
 NQMom=    0.0000000   0.0000000   0.0000000   0.0000000   0.0000000   0.0000000   0.0000000   0.0000000   0.0000000   0.0000000
 NMagM=    0.0000000   0.0000000   0.0000000   0.0000000   0.0000000   0.0000000   0.0000000   0.0000000   0.0000000   0.0000000
 AtZNuc=  28.0000000  28.0000000  28.0000000  28.0000000  28.0000000  28.0000000  28.0000000  28.0000000  28.0000000  28.0000000
 Leave Link  101 at Tue Dec 29 13:46:00 2020, MaxMem=   134217728 cpu:         0.2
 (Enter /home/palacios/Gaussian09/intel/v.D01/g09/l202.exe)
                          Input orientation:                          
 ---------------------------------------------------------------------
 Center     Atomic      Atomic             Coordinates (Angstroms)
 Number     Number       Type             X           Y           Z
 ---------------------------------------------------------------------
      1         28           0        1.765000    0.000000   -3.065000
      2         28           0        0.000000   -1.765000   -3.065000
      3         28           0       -1.765000    0.000000   -3.065000
      4         28           0        0.000000    1.765000   -3.065000
      5         28           0        0.000000    0.000000   -1.300000
      6         28           0        0.000000    0.000000    1.300000
      7         28           0        0.000000    1.765000    3.065000
      8         28           0       -1.765000    0.000000    3.065000
      9         28           0        0.000000   -1.765000    3.065000
     10         28           0        1.765000    0.000000    3.065000
 ---------------------------------------------------------------------
                    Distance matrix (angstroms):
                    1          2          3          4          5
     1  Ni   0.000000
     2  Ni   2.496087   0.000000
     3  Ni   3.530000   2.496087   0.000000
     4  Ni   2.496087   3.530000   2.496087   0.000000
     5  Ni   2.496087   2.496087   2.496087   2.496087   0.000000
     6  Ni   4.708338   4.708338   4.708338   4.708338   2.600000
     7  Ni   6.618712   7.073740   6.618712   6.130000   4.708338
     8  Ni   7.073740   6.618712   6.130000   6.618712   4.708338
     9  Ni   6.618712   6.130000   6.618712   7.073740   4.708338
    10  Ni   6.130000   6.618712   7.073740   6.618712   4.708338
                    6          7          8          9         10
     6  Ni   0.000000
     7  Ni   2.496087   0.000000
     8  Ni   2.496087   2.496087   0.000000
     9  Ni   2.496087   3.530000   2.496087   0.000000
    10  Ni   2.496087   2.496087   3.530000   2.496087   0.000000
 Stoichiometry    Ni10(15)
 Framework group  D4H[C4(Ni.Ni),2SGV(Ni4)]
 Deg. of freedom     3
 Full point group                 D4H     NOp  16
 Largest Abelian subgroup         D2H     NOp   8
 Largest concise Abelian subgroup D2H     NOp   8
                         Standard orientation:                         
 ---------------------------------------------------------------------
 Center     Atomic      Atomic             Coordinates (Angstroms)
 Number     Number       Type             X           Y           Z
 ---------------------------------------------------------------------
      1         28           0        0.000000    1.765000    3.065000
      2         28           0       -1.765000    0.000000    3.065000
      3         28           0        0.000000   -1.765000    3.065000
      4         28           0        1.765000    0.000000    3.065000
      5         28           0        0.000000    0.000000    1.300000
      6         28           0        0.000000    0.000000   -1.300000
      7         28           0        1.765000    0.000000   -3.065000
      8         28           0        0.000000   -1.765000   -3.065000
      9         28           0       -1.765000    0.000000   -3.065000
     10         28           0        0.000000    1.765000   -3.065000
 ---------------------------------------------------------------------
 Rotational constants (GHZ):      0.3500211      0.0958644      0.0958644
 Leave Link  202 at Tue Dec 29 13:46:00 2020, MaxMem=   134217728 cpu:         0.0
 (Enter /home/palacios/Gaussian09/intel/v.D01/g09/l301.exe)
 General basis read from cards:  (5D, 7F)
 Centers:       1      2      3      4      5      6      7      8      9     10
 S 4 1.0
     Exponent=  2.3620000000D+00 Coefficients=  1.0376000000D-02
     Exponent=  8.0790000000D-01 Coefficients= -2.3838400000D-01
     Exponent=  1.2750000000D-01 Coefficients=  6.6522900000D-01
     Exponent=  4.3980000000D-02 Coefficients=  4.7746100000D-01
 D 5 1.0
     Exponent=  2.8730000000D+01 Coefficients=  6.5209000000D-02
     Exponent=  7.7260000000D+00 Coefficients=  2.8056500000D-01
     Exponent=  2.4960000000D+00 Coefficients=  4.4350200000D-01
     Exponent=  9.1660000000D-01 Coefficients=  3.5962700000D-01
     Exponent=  3.1050000000D-01 Coefficients=  2.0531300000D-01
 ****
 ======================================================================================================
                                       Pseudopotential Parameters
 ======================================================================================================
  Center     Atomic      Valence      Angular      Power
  Number     Number     Electrons     Momentum     of R      Exponent        Coefficient   SO-Coeffient
 ======================================================================================================
    1         28           10
                                      D and up 
                                                     2        0.6047000       -0.39820800    0.00000000
                                                     2        1.9370000       -3.11549500    0.00000000
                                                     2        5.4946000      -11.88599500    0.00000000
                                                     2       18.0895000      -32.50999500    0.00000000
                                                     1       53.1894000      -11.93502800    0.00000000
                                      S - D
                                                     2        0.9379000       43.79937700    0.00000000
                                                     2        1.0665000     -122.48827800    0.00000000
                                                     2        1.3201000      170.38290700    0.00000000
                                                     2        1.6045000      -88.12361600    0.00000000
                                                     1        2.2698000        8.00157500    0.00000000
                                                     0        1.7094000        3.67468300    0.00000000
                                      P - D
                                                     2        0.2653000        0.02744700    0.00000000
                                                     2        1.5092000       94.02155300    0.00000000
                                                     2        1.8128000     -187.11548900    0.00000000
                                                     2        2.2120000      122.75196500    0.00000000
                                                     1        5.4856000       12.05337400    0.00000000
                                                     0        7.5189000        5.36371300    0.00000000
    2         28           10
                                      D and up 
                                                     2        0.6047000       -0.39820800    0.00000000
                                                     2        1.9370000       -3.11549500    0.00000000
                                                     2        5.4946000      -11.88599500    0.00000000
                                                     2       18.0895000      -32.50999500    0.00000000
                                                     1       53.1894000      -11.93502800    0.00000000
                                      S - D
                                                     2        0.9379000       43.79937700    0.00000000
                                                     2        1.0665000     -122.48827800    0.00000000
                                                     2        1.3201000      170.38290700    0.00000000
                                                     2        1.6045000      -88.12361600    0.00000000
                                                     1        2.2698000        8.00157500    0.00000000
                                                     0        1.7094000        3.67468300    0.00000000
                                      P - D
                                                     2        0.2653000        0.02744700    0.00000000
                                                     2        1.5092000       94.02155300    0.00000000
                                                     2        1.8128000     -187.11548900    0.00000000
                                                     2        2.2120000      122.75196500    0.00000000
                                                     1        5.4856000       12.05337400    0.00000000
                                                     0        7.5189000        5.36371300    0.00000000
    3         28           10
                                      D and up 
                                                     2        0.6047000       -0.39820800    0.00000000
                                                     2        1.9370000       -3.11549500    0.00000000
                                                     2        5.4946000      -11.88599500    0.00000000
                                                     2       18.0895000      -32.50999500    0.00000000
                                                     1       53.1894000      -11.93502800    0.00000000
                                      S - D
                                                     2        0.9379000       43.79937700    0.00000000
                                                     2        1.0665000     -122.48827800    0.00000000
                                                     2        1.3201000      170.38290700    0.00000000
                                                     2        1.6045000      -88.12361600    0.00000000
                                                     1        2.2698000        8.00157500    0.00000000
                                                     0        1.7094000        3.67468300    0.00000000
                                      P - D
                                                     2        0.2653000        0.02744700    0.00000000
                                                     2        1.5092000       94.02155300    0.00000000
                                                     2        1.8128000     -187.11548900    0.00000000
                                                     2        2.2120000      122.75196500    0.00000000
                                                     1        5.4856000       12.05337400    0.00000000
                                                     0        7.5189000        5.36371300    0.00000000
    4         28           10
                                      D and up 
                                                     2        0.6047000       -0.39820800    0.00000000
                                                     2        1.9370000       -3.11549500    0.00000000
                                                     2        5.4946000      -11.88599500    0.00000000
                                                     2       18.0895000      -32.50999500    0.00000000
                                                     1       53.1894000      -11.93502800    0.00000000
                                      S - D
                                                     2        0.9379000       43.79937700    0.00000000
                                                     2        1.0665000     -122.48827800    0.00000000
                                                     2        1.3201000      170.38290700    0.00000000
                                                     2        1.6045000      -88.12361600    0.00000000
                                                     1        2.2698000        8.00157500    0.00000000
                                                     0        1.7094000        3.67468300    0.00000000
                                      P - D
                                                     2        0.2653000        0.02744700    0.00000000
                                                     2        1.5092000       94.02155300    0.00000000
                                                     2        1.8128000     -187.11548900    0.00000000
                                                     2        2.2120000      122.75196500    0.00000000
                                                     1        5.4856000       12.05337400    0.00000000
                                                     0        7.5189000        5.36371300    0.00000000
    5         28           10
                                      D and up 
                                                     2        0.6047000       -0.39820800    0.00000000
                                                     2        1.9370000       -3.11549500    0.00000000
                                                     2        5.4946000      -11.88599500    0.00000000
                                                     2       18.0895000      -32.50999500    0.00000000
                                                     1       53.1894000      -11.93502800    0.00000000
                                      S - D
                                                     2        0.9379000       43.79937700    0.00000000
                                                     2        1.0665000     -122.48827800    0.00000000
                                                     2        1.3201000      170.38290700    0.00000000
                                                     2        1.6045000      -88.12361600    0.00000000
                                                     1        2.2698000        8.00157500    0.00000000
                                                     0        1.7094000        3.67468300    0.00000000
                                      P - D
                                                     2        0.2653000        0.02744700    0.00000000
                                                     2        1.5092000       94.02155300    0.00000000
                                                     2        1.8128000     -187.11548900    0.00000000
                                                     2        2.2120000      122.75196500    0.00000000
                                                     1        5.4856000       12.05337400    0.00000000
                                                     0        7.5189000        5.36371300    0.00000000
    6         28           10
                                      D and up 
                                                     2        0.6047000       -0.39820800    0.00000000
                                                     2        1.9370000       -3.11549500    0.00000000
                                                     2        5.4946000      -11.88599500    0.00000000
                                                     2       18.0895000      -32.50999500    0.00000000
                                                     1       53.1894000      -11.93502800    0.00000000
                                      S - D
                                                     2        0.9379000       43.79937700    0.00000000
                                                     2        1.0665000     -122.48827800    0.00000000
                                                     2        1.3201000      170.38290700    0.00000000
                                                     2        1.6045000      -88.12361600    0.00000000
                                                     1        2.2698000        8.00157500    0.00000000
                                                     0        1.7094000        3.67468300    0.00000000
                                      P - D
                                                     2        0.2653000        0.02744700    0.00000000
                                                     2        1.5092000       94.02155300    0.00000000
                                                     2        1.8128000     -187.11548900    0.00000000
                                                     2        2.2120000      122.75196500    0.00000000
                                                     1        5.4856000       12.05337400    0.00000000
                                                     0        7.5189000        5.36371300    0.00000000
    7         28           10
                                      D and up 
                                                     2        0.6047000       -0.39820800    0.00000000
                                                     2        1.9370000       -3.11549500    0.00000000
                                                     2        5.4946000      -11.88599500    0.00000000
                                                     2       18.0895000      -32.50999500    0.00000000
                                                     1       53.1894000      -11.93502800    0.00000000
                                      S - D
                                                     2        0.9379000       43.79937700    0.00000000
                                                     2        1.0665000     -122.48827800    0.00000000
                                                     2        1.3201000      170.38290700    0.00000000
                                                     2        1.6045000      -88.12361600    0.00000000
                                                     1        2.2698000        8.00157500    0.00000000
                                                     0        1.7094000        3.67468300    0.00000000
                                      P - D
                                                     2        0.2653000        0.02744700    0.00000000
                                                     2        1.5092000       94.02155300    0.00000000
                                                     2        1.8128000     -187.11548900    0.00000000
                                                     2        2.2120000      122.75196500    0.00000000
                                                     1        5.4856000       12.05337400    0.00000000
                                                     0        7.5189000        5.36371300    0.00000000
    8         28           10
                                      D and up 
                                                     2        0.6047000       -0.39820800    0.00000000
                                                     2        1.9370000       -3.11549500    0.00000000
                                                     2        5.4946000      -11.88599500    0.00000000
                                                     2       18.0895000      -32.50999500    0.00000000
                                                     1       53.1894000      -11.93502800    0.00000000
                                      S - D
                                                     2        0.9379000       43.79937700    0.00000000
                                                     2        1.0665000     -122.48827800    0.00000000
                                                     2        1.3201000      170.38290700    0.00000000
                                                     2        1.6045000      -88.12361600    0.00000000
                                                     1        2.2698000        8.00157500    0.00000000
                                                     0        1.7094000        3.67468300    0.00000000
                                      P - D
                                                     2        0.2653000        0.02744700    0.00000000
                                                     2        1.5092000       94.02155300    0.00000000
                                                     2        1.8128000     -187.11548900    0.00000000
                                                     2        2.2120000      122.75196500    0.00000000
                                                     1        5.4856000       12.05337400    0.00000000
                                                     0        7.5189000        5.36371300    0.00000000
    9         28           10
                                      D and up 
                                                     2        0.6047000       -0.39820800    0.00000000
                                                     2        1.9370000       -3.11549500    0.00000000
                                                     2        5.4946000      -11.88599500    0.00000000
                                                     2       18.0895000      -32.50999500    0.00000000
                                                     1       53.1894000      -11.93502800    0.00000000
                                      S - D
                                                     2        0.9379000       43.79937700    0.00000000
                                                     2        1.0665000     -122.48827800    0.00000000
                                                     2        1.3201000      170.38290700    0.00000000
                                                     2        1.6045000      -88.12361600    0.00000000
                                                     1        2.2698000        8.00157500    0.00000000
                                                     0        1.7094000        3.67468300    0.00000000
                                      P - D
                                                     2        0.2653000        0.02744700    0.00000000
                                                     2        1.5092000       94.02155300    0.00000000
                                                     2        1.8128000     -187.11548900    0.00000000
                                                     2        2.2120000      122.75196500    0.00000000
                                                     1        5.4856000       12.05337400    0.00000000
                                                     0        7.5189000        5.36371300    0.00000000
   10         28           10
                                      D and up 
                                                     2        0.6047000       -0.39820800    0.00000000
                                                     2        1.9370000       -3.11549500    0.00000000
                                                     2        5.4946000      -11.88599500    0.00000000
                                                     2       18.0895000      -32.50999500    0.00000000
                                                     1       53.1894000      -11.93502800    0.00000000
                                      S - D
                                                     2        0.9379000       43.79937700    0.00000000
                                                     2        1.0665000     -122.48827800    0.00000000
                                                     2        1.3201000      170.38290700    0.00000000
                                                     2        1.6045000      -88.12361600    0.00000000
                                                     1        2.2698000        8.00157500    0.00000000
                                                     0        1.7094000        3.67468300    0.00000000
                                      P - D
                                                     2        0.2653000        0.02744700    0.00000000
                                                     2        1.5092000       94.02155300    0.00000000
                                                     2        1.8128000     -187.11548900    0.00000000
                                                     2        2.2120000      122.75196500    0.00000000
                                                     1        5.4856000       12.05337400    0.00000000
                                                     0        7.5189000        5.36371300    0.00000000
 ======================================================================================================
 Ernie: Thresh=  0.10000D-02 Tol=  0.10000D-05 Strict=F.
 There are    14 symmetry adapted cartesian basis functions of AG  symmetry.
 There are     5 symmetry adapted cartesian basis functions of B1G symmetry.
 There are     8 symmetry adapted cartesian basis functions of B2G symmetry.
 There are     8 symmetry adapted cartesian basis functions of B3G symmetry.
 There are     5 symmetry adapted cartesian basis functions of AU  symmetry.
 There are    14 symmetry adapted cartesian basis functions of B1U symmetry.
 There are     8 symmetry adapted cartesian basis functions of B2U symmetry.
 There are     8 symmetry adapted cartesian basis functions of B3U symmetry.
 There are    11 symmetry adapted basis functions of AG  symmetry.
 There are     5 symmetry adapted basis functions of B1G symmetry.
 There are     7 symmetry adapted basis functions of B2G symmetry.
 There are     7 symmetry adapted basis functions of B3G symmetry.
 There are     5 symmetry adapted basis functions of AU  symmetry.
 There are    11 symmetry adapted basis functions of B1U symmetry.
 There are     7 symmetry adapted basis functions of B2U symmetry.
 There are     7 symmetry adapted basis functions of B3U symmetry.
    60 basis functions,   340 primitive gaussians,    70 cartesian basis functions
    57 alpha electrons       43 beta electrons
       nuclear repulsion energy       637.8490858883 Hartrees.
 IExCor=  205 DFT=T Ex=S Corr=VWN ExCW=0 ScaHFX=  0.000000
 ScaDFX=  1.000000  1.000000  1.000000  1.000000 ScalE2=  1.000000  1.000000
 IRadAn=      0 IRanWt=     -1 IRanGd=            0 ICorTp=0 IEmpDi=  4
 NAtoms=   10 NActive=   10 NUniq=    2 SFac= 4.00D+00 NAtFMM=   60 NAOKFM=F Big=F
 Integral buffers will be    131072 words long.
 Raffenetti 2 integral format.
 Two-electron integral symmetry is turned on.
 Leave Link  301 at Tue Dec 29 13:46:00 2020, MaxMem=   134217728 cpu:         0.2
 (Enter /home/palacios/Gaussian09/intel/v.D01/g09/l302.exe)
 NPDir=0 NMtPBC=     1 NCelOv=     1 NCel=       1 NClECP=     1 NCelD=      1
         NCelK=      1 NCelE2=     1 NClLst=     1 CellRange=     0.0.
 One-electron integrals computed using PRISM.
 One-electron integral symmetry used in STVInt
  16 Symmetry operations used in ECPInt.
 ECPInt:  NShTT=     210 NPrTT=    4255 LenC2=     211 LenP2D=    3395.
 LDataN:  DoStor=T MaxTD1= 4 Len=   56
 NBasis=    60 RedAO= T EigKep=  2.14D-01  NBF=    11     5     7     7     5    11     7     7
 NBsUse=    60 1.00D-06 EigRej= -1.00D+00 NBFU=    11     5     7     7     5    11     7     7
 Precomputing XC quadrature grid using
 IXCGrd= 4 IRadAn=           0 IRanWt=          -1 IRanGd=           0 AccXCQ= 0.00D+00.
 Generated NRdTot=       0 NPtTot=           0 NUsed=           0 NTot=          32
 NSgBfM=    70    70    70    70    70 MxSgAt=    10 MxSgA2=    10.
 Leave Link  302 at Tue Dec 29 13:46:00 2020, MaxMem=   134217728 cpu:         1.2
 (Enter /home/palacios/Gaussian09/intel/v.D01/g09/l303.exe)
 DipDrv:  MaxL=1.
 Leave Link  303 at Tue Dec 29 13:46:00 2020, MaxMem=   134217728 cpu:         0.1
 (Enter /home/palacios/Gaussian09/intel/v.D01/g09/l401.exe)
 SCF N**3 symmetry information disabled.
 ExpMin= 4.40D-02 ExpMax= 2.87D+01 ExpMxC= 2.87D+01 IAcc=2 IRadAn=         4 AccDes= 0.00D+00
 Harris functional with IExCor=  205 and IRadAn=       4 diagonalized for initial guess.
 HarFok:  IExCor=  205 AccDes= 0.00D+00 IRadAn=         4 IDoV= 1 UseB2=F ITyADJ=14
 ICtDFT=  3500011 ScaDFX=  1.000000  1.000000  1.000000  1.000000
 FoFCou: FMM=F IPFlag=           0 FMFlag=      100000 FMFlg1=           0
         NFxFlg=           0 DoJE=T BraDBF=F KetDBF=T FulRan=T
         wScrn=  0.000000 ICntrl=     500 IOpCl=  0 I1Cent=   200000004 NGrid=           0
         NMat0=    1 NMatS0=      1 NMatT0=    0 NMatD0=    1 NMtDS0=    0 NMtDT0=    0
 Petite list used in FoFCou.
 Harris En= -403.646075818265    
 JPrj=0 DoOrth=F DoCkMO=F.
 Initial guess orbital symmetries:
 Alpha Orbitals:
       Occupied  (A1G) (EU) (EU) (A2U) (EG) (EG) (B2G) (B1U) (B1G)
                 (B2U) (A2U) (B2G) (A1G) (B1U) (EU) (EU) (EG) (EG)
                 (A1G) (A2U) (A1G) (EU) (EU) (EG) (EG) (B2G) (B1U)
                 (EU) (EU) (EG) (EG) (A2U) (EU) (EU) (EG) (EG)
                 (B1G) (B2U) (A1U) (A2G) (EU) (EU) (B1G) (B2U)
                 (EG) (EG) (B1G) (B2U) (A2G) (A1U) (A1G) (A2U)
                 (EU) (EU) (A1G) (EG) (EG)
       Virtual   (A2U) (B1G) (B2U)
 Beta  Orbitals:
       Occupied  (A1G) (EU) (EU) (A2U) (EG) (EG) (B2G) (B1U) (B1G)
                 (B2U) (A2U) (B2G) (A1G) (B1U) (EU) (EU) (EG) (EG)
                 (A1G) (A2U) (A1G) (EU) (EU) (EG) (EG) (B2G) (B1U)
                 (EU) (EU) (EG) (EG) (A2U) (EU) (EU) (EG) (EG)
                 (B1G) (B2U) (A1U) (A2G) (EU) (EU) (B1G)
       Virtual   (B2U) (EG) (EG) (B1G) (B2U) (A2G) (A1U) (A1G)
                 (A2U) (EU) (EU) (A1G) (EG) (EG) (A2U) (B1G) (B2U)
 The electronic state of the initial guess is 15-B1G.
 Initial guess <Sx>= 0.0000 <Sy>= 0.0000 <Sz>= 7.0000 <S**2>=56.0000 S= 7.0000
 Leave Link  401 at Tue Dec 29 13:46:00 2020, MaxMem=   134217728 cpu:         0.4
 (Enter ./l502.exe)
 UHF open shell SCF:
 Using DIIS extrapolation, IDIIS=  1040.
 Integral symmetry usage will be decided dynamically.
 Keep J ints in memory in symmetry-blocked form, NReq=2728162.
 IVT=       34910 IEndB=       34910 NGot=   134217728 MDV=   133965174
 LenX=   133965174 LenY=   133959833
 Requested convergence on RMS density matrix=1.00D-06 within 128 cycles.
 Requested convergence on MAX density matrix=1.00D-04.
 Requested convergence on             energy=1.00D-04.
 No special actions if energy rises.
 FoFCou: FMM=F IPFlag=           0 FMFlag=           0 FMFlg1=           0
         NFxFlg=           0 DoJE=F BraDBF=F KetDBF=F FulRan=T
         wScrn=  0.000000 ICntrl=     600 IOpCl=  0 I1Cent=           0 NGrid=           0
         NMat0=    1 NMatS0=   1830 NMatT0=    0 NMatD0=    1 NMtDS0=    0 NMtDT0=    0
 Petite list used in FoFCou.

 Cycle   1  Pass 1  IDiag  1:
 
  ****************************************************************** 
  ***                                                            *** 
  ***                      A l i c a n t e                       *** 
  ***                      N a n o                               *** 
  ***                      T r a n s p o r t                     *** 
  ***                      G 0 9                                 *** 
  ***                                                            *** 
  ****************************************************************** 
  ***                     Version: 2.5.0                         *** 
  ****************************************************************** 
  *  Copyright (c) by                                              * 
  *                                                                * 
  *  Juan Jose Palacios (1)                                        * 
  *  David Jacob (2)                                               * 
  *  Maria Soriano (1,5)                                           * 
  *  Angel J. Perez-Jimenez (3)                                    * 
  *  Emilio SanFabian (3)                                          * 
  *  Jose Antonio Antonio Verges (4)                               * 
  *  Enrique Louis (5)                                             * 
  *  Wynand Dednam (5)                                             * 
  *                                                                * 
  * (1) Departamento de Fisica de la Materia Condensada            * 
  *     Universidad Autonoma de Madrid                             * 
  *     28049 Madrid (SPAIN)                                       * 
  * (2) Theory Department                                          * 
  *     Max-Planck-Institute for Microstructure Physics            * 
  *     Halle, 06120 (GERMANY)                                     * 
  * (3) Departamento de Quimica Fisica                             * 
  *     Universidad de Alicante                                    * 
  *     03690 Alicante (SPAIN)                                     * 
  * (4) Insto. de Ciencias de Materiales de Madrid (ICMM)          * 
  *     Consejo Superior de Investigacion y Ciencia (CSIC)         * 
  *     28049 Madrid (SPAIN)                                       * 
  * (5) Departamento de Fisica Aplicada                            * 
  *     Universidad de Alicante                                    * 
  *     03690 Alicante (SPAIN)                                     * 
  *                                                                * 
  ****************************************************************** 
 
  ****************************************************************** 
  *                                                                * 
  *              Initializing ANT.G09 modules                      * 
  *                                                                * 
  ****************************************************************** 
 
 Scanning Ni4-Ni-Ni-Ni4.ant file for parameter specifications...
 Done.
 ****************************
 Basic calculation parameters
 ****************************
 ALPHA      =   1.000000000000000E-002
 NPULAY     =                      5
 CHARGEACC  =   1.000000000000000E-005  %
 FERMIACC   =   1.000000000000000E-005  %
 PACC       =   1.000000000000000E-008  %
 FULLACC    =  F
 MAX        =                     10
 SELFACC    =   1.000000000000000E-006
 SMALL      =   0.100000000000000     
 SMALLD     =   0.100000000000000       A
 BIASVOLT   =   0.000000000000000E+000  V
 QEXCESS    =   0.000000000000000E+000 electrons
 ETA        =   1.000000000000000E-002
 GLUE       =    1.00000000000000     
 FERMISTART =   -5.00000000000000       eV
 SOC        =  T
 SOCFAC     =                      0
 SOC_CFF_P  =   0.000000000000000E+000  eV
 SOC_CFF_D  =   0.000000000000000E+000  eV
 SOC_CFF_F  =   0.000000000000000E+000  eV
 THETA      =   0.000000000000000E+000  degrees
 PHI        =   0.000000000000000E+000  degrees
 SL         =   1.000000000000000E-003
 DMIMAG     =  F
 FMIXING    =  F
 ************************
 Bethe lattice parameters
 ************************
 TYPE1      = BETHE     
 TYPE2      = BETHE     
 BLPAR1     = Papacon-sd          
 BLPAR2     = Papacon-sd          
 NEMBED1    = ? 
 NEMBED2    = ? 
 NATOMEL1   = ? 
 NATOMEL2   = ? 
 OVERLAP    =   0.000000000000000E+000
 *************************
 Spin transport parameters
 *************************
 SWOFFSPL   =   1.000000000000000E-003
 NSPINLOCK  =                      0
 NALPHA     =                     -1
 NBETA      =                     -1
 DU         =  F
 UD         =  F
 DD         =  F
 MRSTART    =                      0
 SPINDEL    =  F
 SPINEDIT   =                      0
 SPINROT    =                     10
   1     0.0000     0.0000
   2     0.0000     0.0000
   3     0.0000     0.0000
   4     0.0000     0.0000
   5    90.0000    90.0000
   6     0.0000     0.0000
   7     0.0000     0.0000
   8     0.0000     0.0000
   9     0.0000     0.0000
  10     0.0000     0.0000
 ***********************
 Correlations parameters
 ***********************
 CORRBLOCKS =                      0
 PORTHO     =  F
 HYBFUNC    =  F
 DFT+U      =  F
 DIAGCORRBL =  F
 *****************
 Output parameters
 *****************
 HAMILTON   =  F
 MULLIKEN   =  F
 HTRANSM    =  F
 ESTEP      =   1.000000000000000E-002
 DOSENERGY  =   0.000000000000000E+000
 EW1        =   -3.00000000000000     
 EW2        =    3.00000000000000     
 LDOS_BEG   =                      5
 LDOS_END   =                      6
 RTM_BEG    =                      1
 RTM_END    =                      0
 NCHANNELS  =                      0
 LEADDOS    =  F
 ANT1D      =  F
 PRTHATOM   =                      1
 -------------------
 Initializing device
 -------------------
 ----------------------------------------------------------
 Analyzing cluster for the connection of the  Bethe Lattice
 ----------------------------------------------------------
 
 Atom type of lead 1: Ni
 Atom type of lead 2: Ni
 
    1   28  10.    6    1    6
    2   28  10.    6    7   12
    3   28  10.    6   13   18
    4   28  10.    6   19   24
    5   28  10.    6   25   30
    6   28  10.    6   31   36
    7   28  10.    6   37   42
    8   28  10.    6   43   48
    9   28  10.    6   49   54
   10   28  10.    6   55   60
 
  Center of charge:
   0.000000   0.000000   0.000000
 
  Atoms in left electrode:                     5
   1  Ni   0.000000   3.335367   5.792011
   2  Ni  -3.335367   0.000000   5.792011
   3  Ni   0.000000  -3.335367   5.792011
   4  Ni   3.335367   0.000000   5.792011
   5  Ni   0.000000   0.000000   2.456644
 
  Atoms in molecule:                     0
 
  Atoms in right electrode:                     5
   6  Ni   0.000000   3.335367  -5.792011
   7  Ni  -3.335367   0.000000  -5.792011
   8  Ni   0.000000  -3.335367  -5.792011
   9  Ni   3.335367   0.000000  -5.792011
  10  Ni   0.000000   0.000000  -2.456644
 
 Plane 1
 with normal vector (  0.000000,  0.000000,  1.000000 )
 has    4 atoms:
    1    1   0.000000   3.335367   5.792011
    2    1  -3.335367   0.000000   5.792011
    3    1   0.000000  -3.335367   5.792011
    4    1   3.335367   0.000000   5.792011
 
 Plane 2
 with normal vector (  0.000000,  0.000000, -1.000000 )
 has    4 atoms:
    7    2   3.335367   0.000000  -5.792011
    8    2   0.000000  -3.335367  -5.792011
    9    2  -3.335367   0.000000  -5.792011
   10    2   0.000000   3.335367  -5.792011
 
 Finding lattice directions in electrode 1 ....
 Near-neighbor distance at electrode 1 =    2.49610010444817     
Found         12  lattice directions
  -0.70711  -0.70711   0.00000
   0.70711   0.70711   0.00000
   0.70711  -0.70711   0.00000
  -0.70711   0.70711   0.00000
   0.00000  -0.70711  -0.70711
   0.00000   0.70711   0.70711
   0.70711   0.00000  -0.70711
  -0.70711   0.00000   0.70711
   0.00000   0.70711  -0.70711
   0.00000  -0.70711   0.70711
  -0.70711   0.00000  -0.70711
   0.70711   0.00000   0.70711
 Finding lattice directions in electrode 2 ....
 Near-neighbor distance at electrode 2 =    2.49610010444817     
Found         12  lattice directions
  -0.70711  -0.70711   0.00000
   0.70711   0.70711   0.00000
   0.70711  -0.70711   0.00000
  -0.70711   0.70711   0.00000
   0.00000  -0.70711   0.70711
   0.00000   0.70711  -0.70711
   0.70711   0.00000   0.70711
  -0.70711   0.00000  -0.70711
   0.00000   0.70711   0.70711
   0.00000  -0.70711  -0.70711
  -0.70711   0.00000   0.70711
   0.70711   0.00000  -0.70711
 
 -----------------------------------------------------
 Inititalizing Bethe lattice for electrode No. 1
 -----------------------------------------------------
 
 Open file 
 /home/palacios/ANT.G/ANT.G-2.5.0/BLDAT/BL028.dat                               
                       to read Bethe lattice parameters.
 Reading Papacon-sd                                         parameters.
 es        =  0.105609344868647     
 edd       = -0.124333420050839     
 edt       = -0.124333420050839     
 sss       = -0.103033241905291     
 sds       = -3.760791153332648E-002
 pds       =  5.549681034257925E-002
 pdp       = -2.348540908381355E-002
 dds       = -3.482042534284590E-002
 ddp       =  2.559919008312816E-002
 ddd       = -5.687000529246089E-003
 es        =  0.135069488733548     
 edd       = -1.969723549398608E-002
 edt       = -1.969723549398608E-002
 sss       = -0.103033241905291     
 sds       = -3.760791153332648E-002
 pds       =  5.549681034257925E-002
 pdp       = -2.348540908381355E-002
 dds       = -3.482042534284590E-002
 ddp       =  2.559919008312816E-002
 ddd       = -5.687000529246089E-003
 S_sss     =  0.181770487906728     
 S_sds     =  8.132441977322173E-004
 S_pds     =  2.999579750911225E-002
 S_pdp     =  9.977614360018582E-003
 S_dds     =  2.451292233362047E-003
 S_ddp     = -2.226954156092378E-002
 S_ddd     =  6.797724075369137E-003
 Done.
 Setting Fermi level to zero for Lead                      1
 Searching boundaries [EMin, EMax] such that Int[EMin, EMax] DOS(E) =
                    12  ( Number of spin orbitals ).
 EMin=  -10.0000000000000        Charge=  1.324431104343660E-005
 EMax=   10.0000000000000        Charge=   11.9337048147017     
 Now searching for Fermi energy...
 Secant method:
 Bethe lattice Fermi energy =    1.03738874335071     
 
 -----------------------------------------------------
 Inititalizing Bethe lattice for electrode No. 2
 -----------------------------------------------------
 
 Open file 
 /home/palacios/ANT.G/ANT.G-2.5.0/BLDAT/BL028.dat                               
                       to read Bethe lattice parameters.
 Reading Papacon-sd                                         parameters.
 es        =  0.105609344868647     
 edd       = -0.124333420050839     
 edt       = -0.124333420050839     
 sss       = -0.103033241905291     
 sds       = -3.760791153332648E-002
 pds       =  5.549681034257925E-002
 pdp       = -2.348540908381355E-002
 dds       = -3.482042534284590E-002
 ddp       =  2.559919008312816E-002
 ddd       = -5.687000529246089E-003
 es        =  0.135069488733548     
 edd       = -1.969723549398608E-002
 edt       = -1.969723549398608E-002
 sss       = -0.103033241905291     
 sds       = -3.760791153332648E-002
 pds       =  5.549681034257925E-002
 pdp       = -2.348540908381355E-002
 dds       = -3.482042534284590E-002
 ddp       =  2.559919008312816E-002
 ddd       = -5.687000529246089E-003
 S_sss     =  0.181770487906728     
 S_sds     =  8.132441977322173E-004
 S_pds     =  2.999579750911225E-002
 S_pdp     =  9.977614360018582E-003
 S_dds     =  2.451292233362047E-003
 S_ddp     = -2.226954156092378E-002
 S_ddd     =  6.797724075369137E-003
 Done.
 Setting Fermi level to zero for Lead                      2
 Searching boundaries [EMin, EMax] such that Int[EMin, EMax] DOS(E) =
                    12  ( Number of spin orbitals ).
 EMin=  -10.0000000000000        Charge=  1.324431104343660E-005
 EMax=   10.0000000000000        Charge=   11.9337048147017     
 Now searching for Fermi energy...
 Secant method:
 Bethe lattice Fermi energy =    1.03738874335071     
 ---------------------------------------------------
  Details on device and contacting atoms -----------
 ---------------------------------------------------
 NEmbed(1) =                     4
 NEmbed(2) =                     4
 Number of electrons in neutral reduced device
 NCDEl =                    100
 First and last orbital in reduced device
 NCDAO1 =                      1
 NCDAO2 =                     60
 ---------------------------------------------------
 -------------------------------------------------------------------------------
 ------------
 Starting calculation with density matrix from file  
 P.Ni4-Ni-Ni-Ni4.dat                               
 -------------------------------------------------------------------------------
 ------------
 Tr[P*S] of initial guess =   100.008720835304     
 --------------------------------
 E= -402.076770805705    
 -------------------------------------------------------------------------
 Computing the density matrix at cycle:                     1
 -------------------------------------------------------------------------
 EMin=  -35.3750075602212     
 EMax=   35.3750075602212     
 --------------
 Charge Control
 --------------
 Searching energy boundaries [EMin, EMax] such that
 Total Integrated Spectral Weight (TISW)= 120
 EMin=        -35.375  EMax=         35.375  TISW=   119.95649
 --------------------------------------------------
 MULLER method
 Integration of P has needed a max no. of loops  16
 Integration of P has needed a max no. of loops  16
 Integration of P has needed a max no. of loops  16
 Integration of P has needed a max no. of loops  16
 Integration of P has needed a max no. of loops  16
 Integration of P has needed a max no. of loops  16
 Integration of P has needed a max no. of loops  16
 Integration of P has needed a max no. of loops  16
 Integration of P has needed a max no. of loops  16
 Integration of P has needed a max no. of loops  16
 -----------------------------------------------
 Fermi energy=  -2.98740  +/-  0.00000
 
 Number of alpha electrons:   55.69490
 Number of beta electrons:    44.30510
 Total number of electrons:   100.00000
 -----------------------------------------------
 DIIS: error= 4.69D-03 at cycle   1 NSaved=   1.
 NSaved= 1 IEnMin= 1 EnMin= -402.076770805705     IErMin= 1 ErrMin= 4.69D-03
 ErrMax= 4.69D-03  0.00D+00 EMaxC= 1.00D-01 BMatC= 3.57D-03 BMatP= 3.57D-03
 IDIUse=3 WtCom= 9.53D-01 WtEn= 4.69D-02
 Coeff-Com:  0.100D+01
 Coeff-En:   0.100D+01
 Coeff:      0.100D+01
 RMSDP=4.63D-02 MaxDP=8.22D-01              OVMax= 0.00D+00

 Cycle   2  Pass 1  IDiag  1:
 E= -402.076758049298     Delta-E=        0.000012756407 Rises=F Damp=F
 -------------------------------------------------------------------------
 Computing the density matrix at cycle:                     2
 -------------------------------------------------------------------------
 EMin=  -35.3764427520008     
 EMax=   35.3764427520008     
 MULLER method
 Integration of P has needed a max no. of loops  16
 Integration of P has needed a max no. of loops  16
 Integration of P has needed a max no. of loops  16
 Integration of P has needed a max no. of loops  16
 Integration of P has needed a max no. of loops  16
 Integration of P has needed a max no. of loops  16
 Integration of P has needed a max no. of loops  16
 Integration of P has needed a max no. of loops  16
 Integration of P has needed a max no. of loops  16
 Integration of P has needed a max no. of loops  16
 -----------------------------------------------
 Fermi energy=  -2.98780  +/-  0.00000
 
 Number of alpha electrons:   55.69486
 Number of beta electrons:    44.30514
 Total number of electrons:   100.00000
 -----------------------------------------------
 RMSDP=8.97D-07 MaxDP=1.12D-05 DE= 1.28D-05 OVMax= 0.00D+00

 SCF Done:  E(US-VWN) =  -402.076758049     A.U. after    2 cycles
            NFock=  2  Conv=0.90D-06     -V/T= 1.5138
 <Sx>= 0.0000 <Sy>= 0.0000 <Sz>= 7.0000 <S**2>=56.0000 S= 7.0000
 <L.S>=  0.00000000000    
 KE= 7.826297440623D+02 PE=-2.795518472686D+03 EE= 9.729628846864D+02
 Annihilation of the first spin contaminant:
 S**2 before annihilation    56.4685,   after    56.7435
 -------------------------------------------------------------------------
 Computing the density matrix at cycle:                  1000
 -------------------------------------------------------------------------
 EMin=  -35.3764427520008     
 EMax=   35.3764427520008     
 MULLER method
 Integration of P has needed a max no. of loops  16
 Integration of P has needed a max no. of loops  16
 Integration of P has needed a max no. of loops  16
 Integration of P has needed a max no. of loops  16
 Integration of P has needed a max no. of loops  16
 Integration of P has needed a max no. of loops  16
 Integration of P has needed a max no. of loops  16
 Integration of P has needed a max no. of loops  16
 Integration of P has needed a max no. of loops  16
 Integration of P has needed a max no. of loops  16
 -----------------------------------------------
 Fermi energy=  -2.98780  +/-  0.00000
 
 Number of alpha electrons:   55.69486
 Number of beta electrons:    44.30514
 Total number of electrons:   100.00000
 -----------------------------------------------
 
 ****************************************** 
 *                                        * 
 *        ANT.G09 final analysis          * 
 *                                        * 
 ****************************************** 
 
 -------------------------------------
 ---  Self-consistent Hamiltonian  ---
 -------------------------------------
 ---------
 Left lead
 ---------
 Atom:   1   -4.984407
 Atom:   2   -4.984407
 Atom:   3   -4.984407
 Atom:   4   -4.984407
 Atom:   5   -4.882628
 ----------
 Right lead
 ----------
 Atom:   6   -4.882628
 Atom:   7   -4.984407
 Atom:   8   -4.984407
 Atom:   9   -4.984407
 Atom:  10   -4.984407
 
 --------------------------------
 --- Calculating Transmission ---
 ---  (and DOS if required)   ---
 --------------------------------
 
  Adding spin-orbit coupling ...
 ... and finding new Fermi level
 Calculating L matrices for p orbitals... 
  Lz in spherical harmonic basis = 
    1.00000    0.00000    0.00000
    0.00000   -1.00000    0.00000
    0.00000    0.00000    0.00000
  Lp in spherical harmonic basis = 
    0.00000    0.00000    1.41421
    0.00000    0.00000    0.00000
    0.00000    1.41421    0.00000
  Lm in spherical harmonic basis = 
    0.00000    0.00000    0.00000
    0.00000    0.00000    1.41421
    1.41421    0.00000    0.00000
  Up = 
   -0.70711    0.70711    0.00000
    0.00000    0.00000    0.00000
    0.00000    0.00000    1.00000
  Lz in cartesian basis (real part) = 
    0.00000    0.00000    0.00000
    0.00000    0.00000    0.00000
    0.00000    0.00000    0.00000
  Lz in cartesian basis (imaginary part) = 
    0.00000    1.00000    0.00000
   -1.00000    0.00000    0.00000
    0.00000    0.00000    0.00000
  Lp in cartesian basis (real part) = 
    0.00000    0.00000   -1.00000
    0.00000    0.00000    0.00000
    1.00000    0.00000    0.00000
  Lp in cartesian basis (imaginary part) = 
    0.00000    0.00000    0.00000
    0.00000    0.00000    1.00000
    0.00000   -1.00000    0.00000
  Lm in cartesian basis (real part) = 
    0.00000    0.00000    1.00000
    0.00000    0.00000    0.00000
   -1.00000    0.00000    0.00000
  Lm in cartesian basis (imaginary part) = 
    0.00000    0.00000    0.00000
    0.00000    0.00000    1.00000
    0.00000   -1.00000    0.00000
 Calculating L matrices for d orbitals... 
  Lz in spherical harmonic basis = 
    0.00000    0.00000    0.00000    0.00000    0.00000
    0.00000    1.00000    0.00000    0.00000    0.00000
    0.00000    0.00000   -1.00000    0.00000    0.00000
    0.00000    0.00000    0.00000    2.00000    0.00000
    0.00000    0.00000    0.00000    0.00000   -2.00000
  Lp in spherical harmonic basis = 
    0.00000    0.00000    2.44949    0.00000    0.00000
    2.44949    0.00000    0.00000    0.00000    0.00000
    0.00000    0.00000    0.00000    0.00000    2.00000
    0.00000    2.00000    0.00000    0.00000    0.00000
    0.00000    0.00000    0.00000    0.00000    0.00000
  Lm in spherical harmonic basis = 
    0.00000    2.44949    0.00000    0.00000    0.00000
    0.00000    0.00000    0.00000    2.00000    0.00000
    2.44949    0.00000    0.00000    0.00000    0.00000
    0.00000    0.00000    0.00000    0.00000    0.00000
    0.00000    0.00000    2.00000    0.00000    0.00000
  Ud = 
    1.00000    0.00000    0.00000    0.00000    0.00000
    0.00000   -0.70711    0.70711    0.00000    0.00000
    0.00000    0.00000    0.00000    0.00000    0.00000
    0.00000    0.00000    0.00000    0.70711    0.70711
    0.00000    0.00000    0.00000    0.00000    0.00000
  Lz in cartesian basis (real part) = 
    0.00000    0.00000    0.00000    0.00000    0.00000
    0.00000    0.00000    0.00000    0.00000    0.00000
    0.00000    0.00000    0.00000    0.00000    0.00000
    0.00000    0.00000    0.00000    0.00000    0.00000
    0.00000    0.00000    0.00000    0.00000    0.00000
  Lz in cartesian basis (imaginary part) = 
    0.00000    0.00000    0.00000    0.00000    0.00000
    0.00000    0.00000    1.00000    0.00000    0.00000
    0.00000   -1.00000    0.00000    0.00000    0.00000
    0.00000    0.00000    0.00000    0.00000    2.00000
    0.00000    0.00000    0.00000   -2.00000    0.00000
  Lp in cartesian basis (real part) = 
    0.00000    1.73205    0.00000    0.00000    0.00000
   -1.73205    0.00000    0.00000    1.00000    0.00000
    0.00000    0.00000    0.00000    0.00000    1.00000
    0.00000   -1.00000    0.00000    0.00000    0.00000
    0.00000    0.00000   -1.00000    0.00000    0.00000
  Lp in cartesian basis (imaginary part) = 
    0.00000    0.00000   -1.73205    0.00000    0.00000
    0.00000    0.00000    0.00000    0.00000   -1.00000
    1.73205    0.00000    0.00000    1.00000    0.00000
    0.00000    0.00000   -1.00000    0.00000    0.00000
    0.00000    1.00000    0.00000    0.00000    0.00000
  Lm in cartesian basis (real part) = 
    0.00000   -1.73205    0.00000    0.00000    0.00000
    1.73205    0.00000    0.00000   -1.00000    0.00000
    0.00000    0.00000    0.00000    0.00000   -1.00000
    0.00000    1.00000    0.00000    0.00000    0.00000
    0.00000    0.00000    1.00000    0.00000    0.00000
  Lm in cartesian basis (imaginary part) = 
    0.00000    0.00000   -1.73205    0.00000    0.00000
    0.00000    0.00000    0.00000    0.00000   -1.00000
    1.73205    0.00000    0.00000    1.00000    0.00000
    0.00000    0.00000   -1.00000    0.00000    0.00000
    0.00000    1.00000    0.00000    0.00000    0.00000
 Calculating L matrices for f orbitals... 
  Lz in spherical harmonic basis = 
    0.00000    0.00000    0.00000    0.00000    0.00000    0.00000    0.00000
    0.00000    1.00000    0.00000    0.00000    0.00000    0.00000    0.00000
    0.00000    0.00000   -1.00000    0.00000    0.00000    0.00000    0.00000
    0.00000    0.00000    0.00000    2.00000    0.00000    0.00000    0.00000
    0.00000    0.00000    0.00000    0.00000   -2.00000    0.00000    0.00000
    0.00000    0.00000    0.00000    0.00000    0.00000    3.00000    0.00000
    0.00000    0.00000    0.00000    0.00000    0.00000    0.00000   -3.00000
  Lp in spherical harmonic basis = 
    0.00000    0.00000    3.46410    0.00000    0.00000    0.00000    0.00000
    3.46410    0.00000    0.00000    0.00000    0.00000    0.00000    0.00000
    0.00000    0.00000    0.00000    0.00000    3.16228    0.00000    0.00000
    0.00000    3.16228    0.00000    0.00000    0.00000    0.00000    0.00000
    0.00000    0.00000    0.00000    0.00000    0.00000    0.00000    2.44949
    0.00000    0.00000    0.00000    2.44949    0.00000    0.00000    0.00000
    0.00000    0.00000    0.00000    0.00000    0.00000    0.00000    0.00000
  Lm in spherical harmonic basis = 
    0.00000    3.46410    0.00000    0.00000    0.00000    0.00000    0.00000
    0.00000    0.00000    0.00000    3.16228    0.00000    0.00000    0.00000
    3.46410    0.00000    0.00000    0.00000    0.00000    0.00000    0.00000
    0.00000    0.00000    0.00000    0.00000    0.00000    2.44949    0.00000
    0.00000    0.00000    3.16228    0.00000    0.00000    0.00000    0.00000
    0.00000    0.00000    0.00000    0.00000    0.00000    0.00000    0.00000
    0.00000    0.00000    0.00000    0.00000    2.44949    0.00000    0.00000
  Uf = 
    1.00000    0.00000    0.00000    0.00000    0.00000    0.00000    0.00000
    0.00000   -0.70711    0.70711    0.00000    0.00000    0.00000    0.00000
    0.00000    0.00000    0.00000    0.00000    0.00000    0.00000    0.00000
    0.00000    0.00000    0.00000    0.70711    0.70711    0.00000    0.00000
    0.00000    0.00000    0.00000    0.00000    0.00000    0.00000    0.00000
    0.00000    0.00000    0.00000    0.00000    0.00000   -0.70711    0.70711
    0.00000    0.00000    0.00000    0.00000    0.00000    0.00000    0.00000
  Lz in cartesian basis (real part) = 
    0.00000    0.00000    0.00000    0.00000    0.00000    0.00000    0.00000
    0.00000    0.00000    0.00000    0.00000    0.00000    0.00000    0.00000
    0.00000    0.00000    0.00000    0.00000    0.00000    0.00000    0.00000
    0.00000    0.00000    0.00000    0.00000    0.00000    0.00000    0.00000
    0.00000    0.00000    0.00000    0.00000    0.00000    0.00000    0.00000
    0.00000    0.00000    0.00000    0.00000    0.00000    0.00000    0.00000
    0.00000    0.00000    0.00000    0.00000    0.00000    0.00000    0.00000
  Lz in cartesian basis (imaginary part) = 
    0.00000    0.00000    0.00000    0.00000    0.00000    0.00000    0.00000
    0.00000    0.00000    1.00000    0.00000    0.00000    0.00000    0.00000
    0.00000   -1.00000    0.00000    0.00000    0.00000    0.00000    0.00000
    0.00000    0.00000    0.00000    0.00000    2.00000    0.00000    0.00000
    0.00000    0.00000    0.00000   -2.00000    0.00000    0.00000    0.00000
    0.00000    0.00000    0.00000    0.00000    0.00000    0.00000    3.00000
    0.00000    0.00000    0.00000    0.00000    0.00000   -3.00000    0.00000
  Lp in cartesian basis (real part) = 
    0.00000    2.44949    0.00000    0.00000    0.00000    0.00000    0.00000
   -2.44949    0.00000    0.00000    1.58114    0.00000    0.00000    0.00000
    0.00000    0.00000    0.00000    0.00000    1.58114    0.00000    0.00000
    0.00000   -1.58114    0.00000    0.00000    0.00000    1.22474    0.00000
    0.00000    0.00000   -1.58114    0.00000    0.00000    0.00000    1.22474
    0.00000    0.00000    0.00000   -1.22474    0.00000    0.00000    0.00000
    0.00000    0.00000    0.00000    0.00000   -1.22474    0.00000    0.00000
  Lp in cartesian basis (imaginary part) = 
    0.00000    0.00000   -2.44949    0.00000    0.00000    0.00000    0.00000
    0.00000    0.00000    0.00000    0.00000   -1.58114    0.00000    0.00000
    2.44949    0.00000    0.00000    1.58114    0.00000    0.00000    0.00000
    0.00000    0.00000   -1.58114    0.00000    0.00000    0.00000   -1.22474
    0.00000    1.58114    0.00000    0.00000    0.00000    1.22474    0.00000
    0.00000    0.00000    0.00000    0.00000   -1.22474    0.00000    0.00000
    0.00000    0.00000    0.00000    1.22474    0.00000    0.00000    0.00000
  Lm in cartesian basis (real part) = 
    0.00000   -2.44949    0.00000    0.00000    0.00000    0.00000    0.00000
    2.44949    0.00000    0.00000   -1.58114    0.00000    0.00000    0.00000
    0.00000    0.00000    0.00000    0.00000   -1.58114    0.00000    0.00000
    0.00000    1.58114    0.00000    0.00000    0.00000   -1.22474    0.00000
    0.00000    0.00000    1.58114    0.00000    0.00000    0.00000   -1.22474
    0.00000    0.00000    0.00000    1.22474    0.00000    0.00000    0.00000
    0.00000    0.00000    0.00000    0.00000    1.22474    0.00000    0.00000
  Lm in cartesian basis (imaginary part) = 
    0.00000    0.00000   -2.44949    0.00000    0.00000    0.00000    0.00000
    0.00000    0.00000    0.00000    0.00000   -1.58114    0.00000    0.00000
    2.44949    0.00000    0.00000    1.58114    0.00000    0.00000    0.00000
    0.00000    0.00000   -1.58114    0.00000    0.00000    0.00000   -1.22474
    0.00000    1.58114    0.00000    0.00000    0.00000    1.22474    0.00000
    0.00000    0.00000    0.00000    0.00000   -1.22474    0.00000    0.00000
    0.00000    0.00000    0.00000    1.22474    0.00000    0.00000    0.00000
 Total number of shells in the cluster:
                    20
 Spin-orbit constants within each atom:
  Atom No.   Shell type 1   Shell type 2 Spin-orbit constant
         1         0         0             0.0000000000
         1         0         2             0.0000000000
         1         2         0             0.0000000000
         1         2         2             0.0000000000
         2         0         0             0.0000000000
         2         0         2             0.0000000000
         2         2         0             0.0000000000
         2         2         2             0.0000000000
         3         0         0             0.0000000000
         3         0         2             0.0000000000
         3         2         0             0.0000000000
         3         2         2             0.0000000000
         4         0         0             0.0000000000
         4         0         2             0.0000000000
         4         2         0             0.0000000000
         4         2         2             0.0000000000
         5         0         0             0.0000000000
         5         0         2             0.0000000000
         5         2         0             0.0000000000
         5         2         2             0.0000000000
         6         0         0             0.0000000000
         6         0         2             0.0000000000
         6         2         0             0.0000000000
         6         2         2             0.0000000000
         7         0         0             0.0000000000
         7         0         2             0.0000000000
         7         2         0             0.0000000000
         7         2         2             0.0000000000
         8         0         0             0.0000000000
         8         0         2             0.0000000000
         8         2         0             0.0000000000
         8         2         2             0.0000000000
         9         0         0             0.0000000000
         9         0         2             0.0000000000
         9         2         0             0.0000000000
         9         2         2             0.0000000000
        10         0         0             0.0000000000
        10         0         2             0.0000000000
        10         2         0             0.0000000000
        10         2         2             0.0000000000
 LS1 (real part) = 
    0.00000    0.00000    0.00000    0.00000    0.00000    0.00000
    0.00000    0.00000    0.00000    0.00000    0.00000    0.00000
    0.00000    0.00000    0.00000    0.00000    0.00000    0.00000
    0.00000    0.00000    0.00000    0.00000    0.00000    0.00000
    0.00000    0.00000    0.00000    0.00000    0.00000    0.00000
    0.00000    0.00000    0.00000    0.00000    0.00000    0.00000
 LS1 (imaginary part) = 
    0.00000    0.00000    0.00000    0.00000    0.00000    0.00000
    0.00000    0.00000    0.00000    0.00000    0.00000    0.00000
    0.00000    0.00000    0.00000    0.00000    0.00000    0.00000
    0.00000    0.00000    0.00000    0.00000    0.00000    0.00000
    0.00000    0.00000    0.00000    0.00000    0.00000    0.00000
    0.00000    0.00000    0.00000    0.00000    0.00000    0.00000
 LS2 (real part) = 
    0.00000    0.00000    0.00000    0.00000    0.00000    0.00000   -0.86603    0.00000    0.00000    0.00000
    0.00000    0.00000    0.00000    0.00000    0.00000    0.86603    0.00000    0.00000   -0.50000    0.00000
    0.00000    0.00000    0.00000    0.00000    0.00000    0.00000    0.00000    0.00000    0.00000   -0.50000
    0.00000    0.00000    0.00000    0.00000    0.00000    0.00000    0.50000    0.00000    0.00000    0.00000
    0.00000    0.00000    0.00000    0.00000    0.00000    0.00000    0.00000    0.50000    0.00000    0.00000
    0.00000    0.86603    0.00000    0.00000    0.00000    0.00000    0.00000    0.00000    0.00000    0.00000
   -0.86603    0.00000    0.00000    0.50000    0.00000    0.00000    0.00000    0.00000    0.00000    0.00000
    0.00000    0.00000    0.00000    0.00000    0.50000    0.00000    0.00000    0.00000    0.00000    0.00000
    0.00000   -0.50000    0.00000    0.00000    0.00000    0.00000    0.00000    0.00000    0.00000    0.00000
    0.00000    0.00000   -0.50000    0.00000    0.00000    0.00000    0.00000    0.00000    0.00000    0.00000
 LS2 (imaginary part) = 
    0.00000    0.00000    0.00000    0.00000    0.00000    0.00000    0.00000   -0.86603    0.00000    0.00000
    0.00000    0.00000    0.50000    0.00000    0.00000    0.00000    0.00000    0.00000    0.00000   -0.50000
    0.00000   -0.50000    0.00000    0.00000    0.00000    0.86603    0.00000    0.00000    0.50000    0.00000
    0.00000    0.00000    0.00000    0.00000    1.00000    0.00000    0.00000   -0.50000    0.00000    0.00000
    0.00000    0.00000    0.00000   -1.00000    0.00000    0.00000    0.50000    0.00000    0.00000    0.00000
    0.00000    0.00000   -0.86603    0.00000    0.00000    0.00000    0.00000    0.00000    0.00000    0.00000
    0.00000    0.00000    0.00000    0.00000   -0.50000    0.00000    0.00000   -0.50000    0.00000    0.00000
    0.86603    0.00000    0.00000    0.50000    0.00000    0.00000    0.50000    0.00000    0.00000    0.00000
    0.00000    0.00000   -0.50000    0.00000    0.00000    0.00000    0.00000    0.00000    0.00000   -1.00000
    0.00000    0.50000    0.00000    0.00000    0.00000    0.00000    0.00000    0.00000    1.00000    0.00000
 LS3 (real part) = 
    0.00000    0.00000    0.00000    0.00000    0.00000    0.00000    0.00000    0.00000    0.00000    0.00000    0.00000    0.00000    0.00000    0.00000
    0.00000    0.00000    0.00000    0.00000    0.00000    0.00000    0.00000    0.00000    0.00000    0.00000    0.00000    0.00000    0.00000    0.00000
    0.00000    0.00000    0.00000    0.00000    0.00000    0.00000    0.00000    0.00000    0.00000    0.00000    0.00000    0.00000    0.00000    0.00000
    0.00000    0.00000    0.00000    0.00000    0.00000    0.00000    0.00000    0.00000    0.00000    0.00000    0.00000    0.00000    0.00000    0.00000
    0.00000    0.00000    0.00000    0.00000    0.00000    0.00000    0.00000    0.00000    0.00000    0.00000    0.00000    0.00000    0.00000    0.00000
    0.00000    0.00000    0.00000    0.00000    0.00000    0.00000    0.00000    0.00000    0.00000    0.00000    0.00000    0.00000    0.00000    0.00000
    0.00000    0.00000    0.00000    0.00000    0.00000    0.00000    0.00000    0.00000    0.00000    0.00000    0.00000    0.00000    0.00000    0.00000
    0.00000    0.00000    0.00000    0.00000    0.00000    0.00000    0.00000    0.00000    0.00000    0.00000    0.00000    0.00000    0.00000    0.00000
    0.00000    0.00000    0.00000    0.00000    0.00000    0.00000    0.00000    0.00000    0.00000    0.00000    0.00000    0.00000    0.00000    0.00000
    0.00000    0.00000    0.00000    0.00000    0.00000    0.00000    0.00000    0.00000    0.00000    0.00000    0.00000    0.00000    0.00000    0.00000
    0.00000    0.00000    0.00000    0.00000    0.00000    0.00000    0.00000    0.00000    0.00000    0.00000    0.00000    0.00000    0.00000    0.00000
    0.00000    0.00000    0.00000    0.00000    0.00000    0.00000    0.00000    0.00000    0.00000    0.00000    0.00000    0.00000    0.00000    0.00000
    0.00000    0.00000    0.00000    0.00000    0.00000    0.00000    0.00000    0.00000    0.00000    0.00000    0.00000    0.00000    0.00000    0.00000
    0.00000    0.00000    0.00000    0.00000    0.00000    0.00000    0.00000    0.00000    0.00000    0.00000    0.00000    0.00000    0.00000    0.00000
 LS3 (imaginary part) = 
    0.00000    0.00000    0.00000    0.00000    0.00000    0.00000    0.00000    0.00000    0.00000    0.00000    0.00000    0.00000    0.00000    0.00000
    0.00000    0.00000    0.00000    0.00000    0.00000    0.00000    0.00000    0.00000    0.00000    0.00000    0.00000    0.00000    0.00000    0.00000
    0.00000    0.00000    0.00000    0.00000    0.00000    0.00000    0.00000    0.00000    0.00000    0.00000    0.00000    0.00000    0.00000    0.00000
    0.00000    0.00000    0.00000    0.00000    0.00000    0.00000    0.00000    0.00000    0.00000    0.00000    0.00000    0.00000    0.00000    0.00000
    0.00000    0.00000    0.00000    0.00000    0.00000    0.00000    0.00000    0.00000    0.00000    0.00000    0.00000    0.00000    0.00000    0.00000
    0.00000    0.00000    0.00000    0.00000    0.00000    0.00000    0.00000    0.00000    0.00000    0.00000    0.00000    0.00000    0.00000    0.00000
    0.00000    0.00000    0.00000    0.00000    0.00000    0.00000    0.00000    0.00000    0.00000    0.00000    0.00000    0.00000    0.00000    0.00000
    0.00000    0.00000    0.00000    0.00000    0.00000    0.00000    0.00000    0.00000    0.00000    0.00000    0.00000    0.00000    0.00000    0.00000
    0.00000    0.00000    0.00000    0.00000    0.00000    0.00000    0.00000    0.00000    0.00000    0.00000    0.00000    0.00000    0.00000    0.00000
    0.00000    0.00000    0.00000    0.00000    0.00000    0.00000    0.00000    0.00000    0.00000    0.00000    0.00000    0.00000    0.00000    0.00000
    0.00000    0.00000    0.00000    0.00000    0.00000    0.00000    0.00000    0.00000    0.00000    0.00000    0.00000    0.00000    0.00000    0.00000
    0.00000    0.00000    0.00000    0.00000    0.00000    0.00000    0.00000    0.00000    0.00000    0.00000    0.00000    0.00000    0.00000    0.00000
    0.00000    0.00000    0.00000    0.00000    0.00000    0.00000    0.00000    0.00000    0.00000    0.00000    0.00000    0.00000    0.00000    0.00000
    0.00000    0.00000    0.00000    0.00000    0.00000    0.00000    0.00000    0.00000    0.00000    0.00000    0.00000    0.00000    0.00000    0.00000
 Real part of hamil_so matrix for atom                      1
 Up-Up
    0.00000    0.00000    0.00000    0.00000    0.00000    0.00000
    0.00000    0.00000    0.00000    0.00000    0.00000    0.00000
    0.00000    0.00000    0.00000    0.00000    0.00000    0.00000
    0.00000    0.00000    0.00000    0.00000    0.00000    0.00000
    0.00000    0.00000    0.00000    0.00000    0.00000    0.00000
    0.00000    0.00000    0.00000    0.00000    0.00000    0.00000
 Up-Down
    0.00000    0.00000    0.00000    0.00000    0.00000    0.00000
    0.00000    0.00000    0.00000    0.00000    0.00000    0.00000
    0.00000    0.00000    0.00000    0.00000    0.00000    0.00000
    0.00000    0.00000    0.00000    0.00000    0.00000    0.00000
    0.00000    0.00000    0.00000    0.00000    0.00000    0.00000
    0.00000    0.00000    0.00000    0.00000    0.00000    0.00000
 Down-Up
    0.00000    0.00000    0.00000    0.00000    0.00000    0.00000
    0.00000    0.00000    0.00000    0.00000    0.00000    0.00000
    0.00000    0.00000    0.00000    0.00000    0.00000    0.00000
    0.00000    0.00000    0.00000    0.00000    0.00000    0.00000
    0.00000    0.00000    0.00000    0.00000    0.00000    0.00000
    0.00000    0.00000    0.00000    0.00000    0.00000    0.00000
 Down-Down
    0.00000    0.00000    0.00000    0.00000    0.00000    0.00000
    0.00000    0.00000    0.00000    0.00000    0.00000    0.00000
    0.00000    0.00000    0.00000    0.00000    0.00000    0.00000
    0.00000    0.00000    0.00000    0.00000    0.00000    0.00000
    0.00000    0.00000    0.00000    0.00000    0.00000    0.00000
    0.00000    0.00000    0.00000    0.00000    0.00000    0.00000
 Imaginary part of hamil_so matrix for atom                      1
 Up-Up
    0.00000    0.00000    0.00000    0.00000    0.00000    0.00000
    0.00000    0.00000    0.00000    0.00000    0.00000    0.00000
    0.00000    0.00000    0.00000    0.00000    0.00000    0.00000
    0.00000    0.00000    0.00000    0.00000    0.00000    0.00000
    0.00000    0.00000    0.00000    0.00000    0.00000    0.00000
    0.00000    0.00000    0.00000    0.00000    0.00000    0.00000
 Up-Down
    0.00000    0.00000    0.00000    0.00000    0.00000    0.00000
    0.00000    0.00000    0.00000    0.00000    0.00000    0.00000
    0.00000    0.00000    0.00000    0.00000    0.00000    0.00000
    0.00000    0.00000    0.00000    0.00000    0.00000    0.00000
    0.00000    0.00000    0.00000    0.00000    0.00000    0.00000
    0.00000    0.00000    0.00000    0.00000    0.00000    0.00000
 Down-Up
    0.00000    0.00000    0.00000    0.00000    0.00000    0.00000
    0.00000    0.00000    0.00000    0.00000    0.00000    0.00000
    0.00000    0.00000    0.00000    0.00000    0.00000    0.00000
    0.00000    0.00000    0.00000    0.00000    0.00000    0.00000
    0.00000    0.00000    0.00000    0.00000    0.00000    0.00000
    0.00000    0.00000    0.00000    0.00000    0.00000    0.00000
 Down-Down
    0.00000    0.00000    0.00000    0.00000    0.00000    0.00000
    0.00000    0.00000    0.00000    0.00000    0.00000    0.00000
    0.00000    0.00000    0.00000    0.00000    0.00000    0.00000
    0.00000    0.00000    0.00000    0.00000    0.00000    0.00000
    0.00000    0.00000    0.00000    0.00000    0.00000    0.00000
    0.00000    0.00000    0.00000    0.00000    0.00000    0.00000
 Hamil matrix for atom                      1  : 
 Up-Up
   -6.18730    0.13867    0.00000   -0.14357    0.10416    0.00000
    0.13867   -5.59233    0.00000   -0.11727   -0.00797    0.00000
    0.00000    0.00000   -5.49331    0.00000    0.00000   -0.04620
   -0.14357   -0.11727    0.00000   -5.70906    0.12180    0.00000
    0.10416   -0.00797    0.00000    0.12180   -5.61701    0.00000
    0.00000    0.00000   -0.04620    0.00000    0.00000   -5.81727
 Up-Down
    0.00000    0.00000    0.00000    0.00000    0.00000    0.00000
    0.00000    0.00000    0.00000    0.00000    0.00000    0.00000
    0.00000    0.00000    0.00000    0.00000    0.00000    0.00000
    0.00000    0.00000    0.00000    0.00000    0.00000    0.00000
    0.00000    0.00000    0.00000    0.00000    0.00000    0.00000
    0.00000    0.00000    0.00000    0.00000    0.00000    0.00000
 Down-Up
    0.00000    0.00000    0.00000    0.00000    0.00000    0.00000
    0.00000    0.00000    0.00000    0.00000    0.00000    0.00000
    0.00000    0.00000    0.00000    0.00000    0.00000    0.00000
    0.00000    0.00000    0.00000    0.00000    0.00000    0.00000
    0.00000    0.00000    0.00000    0.00000    0.00000    0.00000
    0.00000    0.00000    0.00000    0.00000    0.00000    0.00000
 Down-Down
   -5.96923    0.13643    0.00000   -0.13036    0.10049    0.00000
    0.13643   -3.81697    0.00000    0.05685   -0.11702    0.00000
    0.00000    0.00000   -3.88752    0.00000    0.00000   -0.14101
   -0.13036    0.05685    0.00000   -3.82718    0.04468    0.00000
    0.10049   -0.11702    0.00000    0.04468   -4.06067    0.00000
    0.00000    0.00000   -0.14101    0.00000    0.00000   -3.83505
 MULLER method
                  Integration of PD_SOC has needed  128
                 integration points along real axis
                  Integration of PD_SOC has needed  128
                 integration points along real axis
                  Integration of PD_SOC has needed  128
                 integration points along real axis
                  Integration of PD_SOC has needed  128
                 integration points along real axis
