 Entering Gaussian System, Link 0=g09
 Input=Ni9-Ni4-Ni-Ni-Ni4-Ni9.doll.gjf
 Output=Ni9-Ni4-Ni-Ni-Ni4-Ni9.doll.log
 Initial command:
 /home/palacios/Gaussian/g09.D01.nvidia/g09/l1.exe "/home/palacios/scratch/Gau-3768.inp" -scrdir="/home/palacios/scratch/"
 Entering Link 1 = /home/palacios/Gaussian/g09.D01.nvidia/g09/l1.exe PID=      3770.
  
 Copyright (c) 1988,1990,1992,1993,1995,1998,2003,2009,2013,
            Gaussian, Inc.  All Rights Reserved.
  
 This is part of the Gaussian(R) 09 program.  It is based on
 the Gaussian(R) 03 system (copyright 2003, Gaussian, Inc.),
 the Gaussian(R) 98 system (copyright 1998, Gaussian, Inc.),
 the Gaussian(R) 94 system (copyright 1995, Gaussian, Inc.),
 the Gaussian 92(TM) system (copyright 1992, Gaussian, Inc.),
 the Gaussian 90(TM) system (copyright 1990, Gaussian, Inc.),
 the Gaussian 88(TM) system (copyright 1988, Gaussian, Inc.),
 the Gaussian 86(TM) system (copyright 1986, Carnegie Mellon
 University), and the Gaussian 82(TM) system (copyright 1983,
 Carnegie Mellon University). Gaussian is a federally registered
 trademark of Gaussian, Inc.
  
 This software contains proprietary and confidential information,
 including trade secrets, belonging to Gaussian, Inc.
  
 This software is provided under written license and may be
 used, copied, transmitted, or stored only in accord with that
 written license.
  
 The following legend is applicable only to US Government
 contracts under FAR:
  
                    RESTRICTED RIGHTS LEGEND
  
 Use, reproduction and disclosure by the US Government is
 subject to restrictions as set forth in subparagraphs (a)
 and (c) of the Commercial Computer Software - Restricted
 Rights clause in FAR 52.227-19.
  
 Gaussian, Inc.
 340 Quinnipiac St., Bldg. 40, Wallingford CT 06492
  
  
 ---------------------------------------------------------------
 Warning -- This program may not be used in any manner that
 competes with the business of Gaussian, Inc. or will provide
 assistance to any competitor of Gaussian, Inc.  The licensee
 of this program is prohibited from giving any competitor of
 Gaussian, Inc. access to this program.  By using this program,
 the user acknowledges that Gaussian, Inc. is engaged in the
 business of creating and licensing software in the field of
 computational chemistry and represents and warrants to the
 licensee that it is not a competitor of Gaussian, Inc. and that
 it will not use this program in any manner prohibited above.
 ---------------------------------------------------------------
  

 Cite this work as:
 Gaussian 09, Revision D.01,
 M. J. Frisch, G. W. Trucks, H. B. Schlegel, G. E. Scuseria, 
 M. A. Robb, J. R. Cheeseman, G. Scalmani, V. Barone, B. Mennucci, 
 G. A. Petersson, H. Nakatsuji, M. Caricato, X. Li, H. P. Hratchian, 
 A. F. Izmaylov, J. Bloino, G. Zheng, J. L. Sonnenberg, M. Hada, 
 M. Ehara, K. Toyota, R. Fukuda, J. Hasegawa, M. Ishida, T. Nakajima, 
 Y. Honda, O. Kitao, H. Nakai, T. Vreven, J. A. Montgomery, Jr., 
 J. E. Peralta, F. Ogliaro, M. Bearpark, J. J. Heyd, E. Brothers, 
 K. N. Kudin, V. N. Staroverov, T. Keith, R. Kobayashi, J. Normand, 
 K. Raghavachari, A. Rendell, J. C. Burant, S. S. Iyengar, J. Tomasi, 
 M. Cossi, N. Rega, J. M. Millam, M. Klene, J. E. Knox, J. B. Cross, 
 V. Bakken, C. Adamo, J. Jaramillo, R. Gomperts, R. E. Stratmann, 
 O. Yazyev, A. J. Austin, R. Cammi, C. Pomelli, J. W. Ochterski, 
 R. L. Martin, K. Morokuma, V. G. Zakrzewski, G. A. Voth, 
 P. Salvador, J. J. Dannenberg, S. Dapprich, A. D. Daniels, 
 O. Farkas, J. B. Foresman, J. V. Ortiz, J. Cioslowski, 
 and D. J. Fox, Gaussian, Inc., Wallingford CT, 2013.
 
 ******************************************
 Gaussian 09:  ES64L-G09RevD.01 24-Apr-2013
                17-Mar-2023 
 ******************************************
 %mem=500mb
 %Subst L502 ../../bin
 %Subst L101 ../../bin
 %NProcShared=4
 Will use up to    4 processors via shared memory.
 -----------------------------------------------------------------
 #p lsda/gen pseudo=read pop=min Scf=(conver=4,maxcycle=300,dsymm)
 -----------------------------------------------------------------
 1/38=1/1;
 2/12=2,17=6,18=5,40=1/2;
 3/5=7,11=2,16=1,17=8,25=1,30=1,74=205/1,2,3;
 4//1;
 5/5=2,6=4,7=300,17=200,38=5/2;
 6/7=2,8=2,9=2,10=2,28=1/1;
 99/5=1,9=1/99;
 Leave Link    1 at Fri Mar 17 10:01:56 2023, MaxMem=    65536000 cpu:         0.0
 (Enter ../../bin/l101.exe)
 --------------------------
 Ni9-Ni4-Ni-Ni-Ni4-Ni9.doll
 --------------------------
 Symbolic Z-matrix:
 Charge =  0 Multiplicity =37
 Ni                    3.53      0.       -4.83 
 Ni                    1.765    -1.765    -4.83 
 Ni                    1.765     1.765    -4.83 
 Ni                    0.       -3.53     -4.83 
 Ni                    0.        0.       -4.83 
 Ni                   -1.765    -1.765    -4.83 
 Ni                    0.        3.53     -4.83 
 Ni                   -1.765     1.765    -4.83 
 Ni                   -3.53      0.       -4.83 
 Ni                    1.765     0.       -3.065 
 Ni                    0.       -1.765    -3.065 
 Ni                   -1.765     0.       -3.065 
 Ni                    0.        1.765    -3.065 
 Ni                    0.        0.       -1.3 
 Ni                    0.        0.        1.3 
 Ni                    0.        1.765     3.065 
 Ni                   -1.765     0.        3.065 
 Ni                    0.       -1.765     3.065 
 Ni                    1.765     0.        3.065 
 Ni                   -3.53      0.        4.83 
 Ni                   -1.765     1.765     4.83 
 Ni                    0.        3.53      4.83 
 Ni                   -1.765    -1.765     4.83 
 Ni                    0.        0.        4.83 
 Ni                    0.       -3.53      4.83 
 Ni                    1.765     1.765     4.83 
 Ni                    1.765    -1.765     4.83 
 Ni                    3.53      0.        4.83 
 
 NAtoms=     28 NQM=       28 NQMF=       0 NMMI=      0 NMMIF=      0
                NMic=       0 NMicF=      0.
                    Isotopes and Nuclear Properties:
 (Nuclear quadrupole moments (NQMom) in fm**2, nuclear magnetic moments (NMagM)
  in nuclear magnetons)

  Atom         1           2           3           4           5           6           7           8           9          10
 IAtWgt=          58          58          58          58          58          58          58          58          58          58
 AtmWgt=  57.9353471  57.9353471  57.9353471  57.9353471  57.9353471  57.9353471  57.9353471  57.9353471  57.9353471  57.9353471
 NucSpn=           0           0           0           0           0           0           0           0           0           0
 AtZEff=   0.0000000   0.0000000   0.0000000   0.0000000   0.0000000   0.0000000   0.0000000   0.0000000   0.0000000   0.0000000
 NQMom=    0.0000000   0.0000000   0.0000000   0.0000000   0.0000000   0.0000000   0.0000000   0.0000000   0.0000000   0.0000000
 NMagM=    0.0000000   0.0000000   0.0000000   0.0000000   0.0000000   0.0000000   0.0000000   0.0000000   0.0000000   0.0000000
 AtZNuc=  28.0000000  28.0000000  28.0000000  28.0000000  28.0000000  28.0000000  28.0000000  28.0000000  28.0000000  28.0000000

  Atom        11          12          13          14          15          16          17          18          19          20
 IAtWgt=          58          58          58          58          58          58          58          58          58          58
 AtmWgt=  57.9353471  57.9353471  57.9353471  57.9353471  57.9353471  57.9353471  57.9353471  57.9353471  57.9353471  57.9353471
 NucSpn=           0           0           0           0           0           0           0           0           0           0
 AtZEff=   0.0000000   0.0000000   0.0000000   0.0000000   0.0000000   0.0000000   0.0000000   0.0000000   0.0000000   0.0000000
 NQMom=    0.0000000   0.0000000   0.0000000   0.0000000   0.0000000   0.0000000   0.0000000   0.0000000   0.0000000   0.0000000
 NMagM=    0.0000000   0.0000000   0.0000000   0.0000000   0.0000000   0.0000000   0.0000000   0.0000000   0.0000000   0.0000000
 AtZNuc=  28.0000000  28.0000000  28.0000000  28.0000000  28.0000000  28.0000000  28.0000000  28.0000000  28.0000000  28.0000000

  Atom        21          22          23          24          25          26          27          28
 IAtWgt=          58          58          58          58          58          58          58          58
 AtmWgt=  57.9353471  57.9353471  57.9353471  57.9353471  57.9353471  57.9353471  57.9353471  57.9353471
 NucSpn=           0           0           0           0           0           0           0           0
 AtZEff=   0.0000000   0.0000000   0.0000000   0.0000000   0.0000000   0.0000000   0.0000000   0.0000000
 NQMom=    0.0000000   0.0000000   0.0000000   0.0000000   0.0000000   0.0000000   0.0000000   0.0000000
 NMagM=    0.0000000   0.0000000   0.0000000   0.0000000   0.0000000   0.0000000   0.0000000   0.0000000
 AtZNuc=  28.0000000  28.0000000  28.0000000  28.0000000  28.0000000  28.0000000  28.0000000  28.0000000
 Leave Link  101 at Fri Mar 17 10:01:56 2023, MaxMem=    65536000 cpu:         0.1
 (Enter /home/palacios/Gaussian/g09.D01.nvidia/g09/l202.exe)
                          Input orientation:                          
 ---------------------------------------------------------------------
 Center     Atomic      Atomic             Coordinates (Angstroms)
 Number     Number       Type             X           Y           Z
 ---------------------------------------------------------------------
      1         28           0        3.530000    0.000000   -4.830000
      2         28           0        1.765000   -1.765000   -4.830000
      3         28           0        1.765000    1.765000   -4.830000
      4         28           0        0.000000   -3.530000   -4.830000
      5         28           0        0.000000    0.000000   -4.830000
      6         28           0       -1.765000   -1.765000   -4.830000
      7         28           0        0.000000    3.530000   -4.830000
      8         28           0       -1.765000    1.765000   -4.830000
      9         28           0       -3.530000    0.000000   -4.830000
     10         28           0        1.765000    0.000000   -3.065000
     11         28           0        0.000000   -1.765000   -3.065000
     12         28           0       -1.765000    0.000000   -3.065000
     13         28           0        0.000000    1.765000   -3.065000
     14         28           0        0.000000    0.000000   -1.300000
     15         28           0        0.000000    0.000000    1.300000
     16         28           0        0.000000    1.765000    3.065000
     17         28           0       -1.765000    0.000000    3.065000
     18         28           0        0.000000   -1.765000    3.065000
     19         28           0        1.765000    0.000000    3.065000
     20         28           0       -3.530000    0.000000    4.830000
     21         28           0       -1.765000    1.765000    4.830000
     22         28           0        0.000000    3.530000    4.830000
     23         28           0       -1.765000   -1.765000    4.830000
     24         28           0        0.000000    0.000000    4.830000
     25         28           0        0.000000   -3.530000    4.830000
     26         28           0        1.765000    1.765000    4.830000
     27         28           0        1.765000   -1.765000    4.830000
     28         28           0        3.530000    0.000000    4.830000
 ---------------------------------------------------------------------
                    Distance matrix (angstroms):
                    1          2          3          4          5
     1  Ni   0.000000
     2  Ni   2.496087   0.000000
     3  Ni   2.496087   3.530000   0.000000
     4  Ni   4.992174   2.496087   5.581420   0.000000
     5  Ni   3.530000   2.496087   2.496087   3.530000   0.000000
     6  Ni   5.581420   3.530000   4.992174   2.496087   2.496087
     7  Ni   4.992174   5.581420   2.496087   7.060000   3.530000
     8  Ni   5.581420   4.992174   3.530000   5.581420   2.496087
     9  Ni   7.060000   5.581420   5.581420   4.992174   3.530000
    10  Ni   2.496087   2.496087   2.496087   4.323349   2.496087
    11  Ni   4.323349   2.496087   4.323349   2.496087   2.496087
    12  Ni   5.581420   4.323349   4.323349   4.323349   2.496087
    13  Ni   4.323349   4.323349   2.496087   5.581420   2.496087
    14  Ni   4.992174   4.323349   4.323349   4.992174   3.530000
    15  Ni   7.073740   6.618712   6.618712   7.073740   6.130000
    16  Ni   8.826503   8.826503   8.089886   9.506211   8.089886
    17  Ni   9.506211   8.826503   8.826503   8.826503   8.089886
    18  Ni   8.826503   8.089886   8.826503   8.089886   8.089886
    19  Ni   8.089886   8.089886   8.089886   8.826503   8.089886
    20  Ni  11.964915  11.156516  11.156516  10.873702  10.284770
    21  Ni  11.156516  10.873702  10.284770  11.156516   9.977277
    22  Ni  10.873702  11.156516   9.977277  11.964915  10.284770
    23  Ni  11.156516  10.284770  10.873702   9.977277   9.977277
    24  Ni  10.284770   9.977277   9.977277  10.284770   9.660000
    25  Ni  10.873702   9.977277  11.156516   9.660000  10.284770
    26  Ni   9.977277  10.284770   9.660000  11.156516   9.977277
    27  Ni   9.977277   9.660000  10.284770   9.977277   9.977277
    28  Ni   9.660000   9.977277   9.977277  10.873702  10.284770
                    6          7          8          9         10
     6  Ni   0.000000
     7  Ni   5.581420   0.000000
     8  Ni   3.530000   2.496087   0.000000
     9  Ni   2.496087   4.992174   2.496087   0.000000
    10  Ni   4.323349   4.323349   4.323349   5.581420   0.000000
    11  Ni   2.496087   5.581420   4.323349   4.323349   2.496087
    12  Ni   2.496087   4.323349   2.496087   2.496087   3.530000
    13  Ni   4.323349   2.496087   2.496087   4.323349   2.496087
    14  Ni   4.323349   4.992174   4.323349   4.992174   2.496087
    15  Ni   6.618712   7.073740   6.618712   7.073740   4.708338
    16  Ni   8.826503   8.089886   8.089886   8.826503   6.618712
    17  Ni   8.089886   8.826503   8.089886   8.089886   7.073740
    18  Ni   8.089886   9.506211   8.826503   8.826503   6.618712
    19  Ni   8.826503   8.826503   8.826503   9.506211   6.130000
    20  Ni   9.977277  10.873702   9.977277   9.660000   9.506211
    21  Ni  10.284770   9.977277   9.660000   9.977277   8.826503
    22  Ni  11.156516   9.660000   9.977277  10.873702   8.826503
    23  Ni   9.660000  11.156516  10.284770   9.977277   8.826503
    24  Ni   9.977277  10.284770   9.977277  10.284770   8.089886
    25  Ni   9.977277  11.964915  11.156516  10.873702   8.826503
    26  Ni  10.873702   9.977277  10.284770  11.156516   8.089886
    27  Ni  10.284770  11.156516  10.873702  11.156516   8.089886
    28  Ni  11.156516  10.873702  11.156516  11.964915   8.089886
                   11         12         13         14         15
    11  Ni   0.000000
    12  Ni   2.496087   0.000000
    13  Ni   3.530000   2.496087   0.000000
    14  Ni   2.496087   2.496087   2.496087   0.000000
    15  Ni   4.708338   4.708338   4.708338   2.600000   0.000000
    16  Ni   7.073740   6.618712   6.130000   4.708338   2.496087
    17  Ni   6.618712   6.130000   6.618712   4.708338   2.496087
    18  Ni   6.130000   6.618712   7.073740   4.708338   2.496087
    19  Ni   6.618712   7.073740   6.618712   4.708338   2.496087
    20  Ni   8.826503   8.089886   8.826503   7.073740   4.992174
    21  Ni   8.826503   8.089886   8.089886   6.618712   4.323349
    22  Ni   9.506211   8.826503   8.089886   7.073740   4.992174
    23  Ni   8.089886   8.089886   8.826503   6.618712   4.323349
    24  Ni   8.089886   8.089886   8.089886   6.130000   3.530000
    25  Ni   8.089886   8.826503   9.506211   7.073740   4.992174
    26  Ni   8.826503   8.826503   8.089886   6.618712   4.323349
    27  Ni   8.089886   8.826503   8.826503   6.618712   4.323349
    28  Ni   8.826503   9.506211   8.826503   7.073740   4.992174
                   16         17         18         19         20
    16  Ni   0.000000
    17  Ni   2.496087   0.000000
    18  Ni   3.530000   2.496087   0.000000
    19  Ni   2.496087   3.530000   2.496087   0.000000
    20  Ni   4.323349   2.496087   4.323349   5.581420   0.000000
    21  Ni   2.496087   2.496087   4.323349   4.323349   2.496087
    22  Ni   2.496087   4.323349   5.581420   4.323349   4.992174
    23  Ni   4.323349   2.496087   2.496087   4.323349   2.496087
    24  Ni   2.496087   2.496087   2.496087   2.496087   3.530000
    25  Ni   5.581420   4.323349   2.496087   4.323349   4.992174
    26  Ni   2.496087   4.323349   4.323349   2.496087   5.581420
    27  Ni   4.323349   4.323349   2.496087   2.496087   5.581420
    28  Ni   4.323349   5.581420   4.323349   2.496087   7.060000
                   21         22         23         24         25
    21  Ni   0.000000
    22  Ni   2.496087   0.000000
    23  Ni   3.530000   5.581420   0.000000
    24  Ni   2.496087   3.530000   2.496087   0.000000
    25  Ni   5.581420   7.060000   2.496087   3.530000   0.000000
    26  Ni   3.530000   2.496087   4.992174   2.496087   5.581420
    27  Ni   4.992174   5.581420   3.530000   2.496087   2.496087
    28  Ni   5.581420   4.992174   5.581420   3.530000   4.992174
                   26         27         28
    26  Ni   0.000000
    27  Ni   3.530000   0.000000
    28  Ni   2.496087   2.496087   0.000000
 Stoichiometry    Ni28(37)
 Framework group  D4H[C4(NiNi.NiNi),2SGV(Ni8),2SGD(Ni4)]
 Deg. of freedom     8
 Full point group                 D4H     NOp  16
 Largest Abelian subgroup         D2H     NOp   8
 Largest concise Abelian subgroup D2H     NOp   8
                         Standard orientation:                         
 ---------------------------------------------------------------------
 Center     Atomic      Atomic             Coordinates (Angstroms)
 Number     Number       Type             X           Y           Z
 ---------------------------------------------------------------------
      1         28           0        0.000000    3.530000    4.830000
      2         28           0       -1.765000    1.765000    4.830000
      3         28           0        1.765000    1.765000    4.830000
      4         28           0       -3.530000    0.000000    4.830000
      5         28           0        0.000000    0.000000    4.830000
      6         28           0       -1.765000   -1.765000    4.830000
      7         28           0        3.530000   -0.000000    4.830000
      8         28           0        1.765000   -1.765000    4.830000
      9         28           0       -0.000000   -3.530000    4.830000
     10         28           0        0.000000    1.765000    3.065000
     11         28           0       -1.765000    0.000000    3.065000
     12         28           0       -0.000000   -1.765000    3.065000
     13         28           0        1.765000   -0.000000    3.065000
     14         28           0        0.000000    0.000000    1.300000
     15         28           0        0.000000    0.000000   -1.300000
     16         28           0        1.765000   -0.000000   -3.065000
     17         28           0       -0.000000   -1.765000   -3.065000
     18         28           0       -1.765000    0.000000   -3.065000
     19         28           0        0.000000    1.765000   -3.065000
     20         28           0       -0.000000   -3.530000   -4.830000
     21         28           0        1.765000   -1.765000   -4.830000
     22         28           0        3.530000   -0.000000   -4.830000
     23         28           0       -1.765000   -1.765000   -4.830000
     24         28           0        0.000000    0.000000   -4.830000
     25         28           0       -3.530000    0.000000   -4.830000
     26         28           0        1.765000    1.765000   -4.830000
     27         28           0       -1.765000    1.765000   -4.830000
     28         28           0        0.000000    3.530000   -4.830000
 ---------------------------------------------------------------------
 Rotational constants (GHZ):      0.0500030      0.0148941      0.0148941
 Leave Link  202 at Fri Mar 17 10:01:56 2023, MaxMem=    65536000 cpu:         0.0
 (Enter /home/palacios/Gaussian/g09.D01.nvidia/g09/l301.exe)
 General basis read from cards:  (5D, 7F)
 Centers:       1      2      3      4      5      6      7      8      9     20
 Centers:      21     22     23     24     25     26     27     28
 S 4 1.0
     Exponent=  2.3620000000D+00 Coefficients=  1.0376000000D-02
     Exponent=  8.0790000000D-01 Coefficients= -2.3838400000D-01
     Exponent=  1.2750000000D-01 Coefficients=  6.6522900000D-01
     Exponent=  4.3980000000D-02 Coefficients=  4.7746100000D-01
 D 5 1.0
     Exponent=  2.8730000000D+01 Coefficients=  6.5209000000D-02
     Exponent=  7.7260000000D+00 Coefficients=  2.8056500000D-01
     Exponent=  2.4960000000D+00 Coefficients=  4.4350200000D-01
     Exponent=  9.1660000000D-01 Coefficients=  3.5962700000D-01
     Exponent=  3.1050000000D-01 Coefficients=  2.0531300000D-01
 ****
 Centers:      10     11     12     13     14     15     16     17     18     19
 S 8 1.0
     Exponent=  3.6791600000D+05 Coefficients=  2.2700000000D-04
     Exponent=  5.2493900000D+04 Coefficients=  1.9290000000D-03
     Exponent=  1.1175800000D+04 Coefficients=  1.1100000000D-02
     Exponent=  2.9254000000D+03 Coefficients=  5.0000000000D-02
     Exponent=  8.8287500000D+02 Coefficients=  1.7030000000D-01
     Exponent=  3.0553800000D+02 Coefficients=  3.6900000000D-01
     Exponent=  1.1955100000D+02 Coefficients=  4.0350000000D-01
     Exponent=  4.9924700000D+01 Coefficients=  1.4260000000D-01
 SP 6 1.0
     Exponent=  9.2452500000D+02 Coefficients= -5.2000000000D-03  8.6000000000D-03
     Exponent=  2.2304400000D+02 Coefficients= -6.7900000000D-02  6.0900000000D-02
     Exponent=  7.4421100000D+01 Coefficients= -1.3190000000D-01  2.1350000000D-01
     Exponent=  2.9621100000D+01 Coefficients=  2.5760000000D-01  3.9440000000D-01
     Exponent=  1.2472100000D+01 Coefficients=  6.3570000000D-01  3.9730000000D-01
     Exponent=  4.2461000000D+00 Coefficients=  2.8380000000D-01  2.5860000000D-01
 SP 4 1.0
     Exponent=  5.6658100000D+01 Coefficients=  1.2400000000D-02 -1.8000000000D-02
     Exponent=  2.1206300000D+01 Coefficients= -2.2180000000D-01 -8.0000000000D-02
     Exponent=  8.4914000000D+00 Coefficients= -8.7130000000D-01  2.0890000000D-01
     Exponent=  3.6152000000D+00 Coefficients=  1.0285000000D+00  1.2550000000D+00
 P 1 1.0
     Exponent=  1.5145000000D+00 Coefficients=  1.0000000000D+00
 SP 1 1.0
     Exponent=  6.3000000000D-01 Coefficients=  1.0000000000D+00  1.0000000000D+00
 SP 1 1.0
     Exponent=  1.3000000000D-01 Coefficients=  1.0000000000D+00  1.0000000000D+00
 S 1 1.0
     Exponent=  1.5145000000D+00 Coefficients=  1.0000000000D+00
 D 4 1.0
     Exponent=  4.1080000000D+01 Coefficients=  4.0500000000D-02
     Exponent=  1.1413000000D+01 Coefficients=  2.0220000000D-01
     Exponent=  3.8561000000D+00 Coefficients=  4.3380000000D-01
     Exponent=  1.3302000000D+00 Coefficients=  4.8970000000D-01
 D 1 1.0
     Exponent=  3.8000000000D-01 Coefficients=  1.0000000000D+00
 ****
 ======================================================================================================
                                       Pseudopotential Parameters
 ======================================================================================================
  Center     Atomic      Valence      Angular      Power
  Number     Number     Electrons     Momentum     of R      Exponent        Coefficient   SO-Coeffient
 ======================================================================================================
    1         28           10
                                      D and up 
                                                     2        0.6047000       -0.39820800    0.00000000
                                                     2        1.9370000       -3.11549500    0.00000000
                                                     2        5.4946000      -11.88599500    0.00000000
                                                     2       18.0895000      -32.50999500    0.00000000
                                                     1       53.1894000      -11.93502800    0.00000000
                                      S - D
                                                     2        0.9379000       43.79937700    0.00000000
                                                     2        1.0665000     -122.48827800    0.00000000
                                                     2        1.3201000      170.38290700    0.00000000
                                                     2        1.6045000      -88.12361600    0.00000000
                                                     1        2.2698000        8.00157500    0.00000000
                                                     0        1.7094000        3.67468300    0.00000000
                                      P - D
                                                     2        0.2653000        0.02744700    0.00000000
                                                     2        1.5092000       94.02155300    0.00000000
                                                     2        1.8128000     -187.11548900    0.00000000
                                                     2        2.2120000      122.75196500    0.00000000
                                                     1        5.4856000       12.05337400    0.00000000
                                                     0        7.5189000        5.36371300    0.00000000
    2         28           10
                                      D and up 
                                                     2        0.6047000       -0.39820800    0.00000000
                                                     2        1.9370000       -3.11549500    0.00000000
                                                     2        5.4946000      -11.88599500    0.00000000
                                                     2       18.0895000      -32.50999500    0.00000000
                                                     1       53.1894000      -11.93502800    0.00000000
                                      S - D
                                                     2        0.9379000       43.79937700    0.00000000
                                                     2        1.0665000     -122.48827800    0.00000000
                                                     2        1.3201000      170.38290700    0.00000000
                                                     2        1.6045000      -88.12361600    0.00000000
                                                     1        2.2698000        8.00157500    0.00000000
                                                     0        1.7094000        3.67468300    0.00000000
                                      P - D
                                                     2        0.2653000        0.02744700    0.00000000
                                                     2        1.5092000       94.02155300    0.00000000
                                                     2        1.8128000     -187.11548900    0.00000000
                                                     2        2.2120000      122.75196500    0.00000000
                                                     1        5.4856000       12.05337400    0.00000000
                                                     0        7.5189000        5.36371300    0.00000000
    3         28           10
                                      D and up 
                                                     2        0.6047000       -0.39820800    0.00000000
                                                     2        1.9370000       -3.11549500    0.00000000
                                                     2        5.4946000      -11.88599500    0.00000000
                                                     2       18.0895000      -32.50999500    0.00000000
                                                     1       53.1894000      -11.93502800    0.00000000
                                      S - D
                                                     2        0.9379000       43.79937700    0.00000000
                                                     2        1.0665000     -122.48827800    0.00000000
                                                     2        1.3201000      170.38290700    0.00000000
                                                     2        1.6045000      -88.12361600    0.00000000
                                                     1        2.2698000        8.00157500    0.00000000
                                                     0        1.7094000        3.67468300    0.00000000
                                      P - D
                                                     2        0.2653000        0.02744700    0.00000000
                                                     2        1.5092000       94.02155300    0.00000000
                                                     2        1.8128000     -187.11548900    0.00000000
                                                     2        2.2120000      122.75196500    0.00000000
                                                     1        5.4856000       12.05337400    0.00000000
                                                     0        7.5189000        5.36371300    0.00000000
    4         28           10
                                      D and up 
                                                     2        0.6047000       -0.39820800    0.00000000
                                                     2        1.9370000       -3.11549500    0.00000000
                                                     2        5.4946000      -11.88599500    0.00000000
                                                     2       18.0895000      -32.50999500    0.00000000
                                                     1       53.1894000      -11.93502800    0.00000000
                                      S - D
                                                     2        0.9379000       43.79937700    0.00000000
                                                     2        1.0665000     -122.48827800    0.00000000
                                                     2        1.3201000      170.38290700    0.00000000
                                                     2        1.6045000      -88.12361600    0.00000000
                                                     1        2.2698000        8.00157500    0.00000000
                                                     0        1.7094000        3.67468300    0.00000000
                                      P - D
                                                     2        0.2653000        0.02744700    0.00000000
                                                     2        1.5092000       94.02155300    0.00000000
                                                     2        1.8128000     -187.11548900    0.00000000
                                                     2        2.2120000      122.75196500    0.00000000
                                                     1        5.4856000       12.05337400    0.00000000
                                                     0        7.5189000        5.36371300    0.00000000
    5         28           10
                                      D and up 
                                                     2        0.6047000       -0.39820800    0.00000000
                                                     2        1.9370000       -3.11549500    0.00000000
                                                     2        5.4946000      -11.88599500    0.00000000
                                                     2       18.0895000      -32.50999500    0.00000000
                                                     1       53.1894000      -11.93502800    0.00000000
                                      S - D
                                                     2        0.9379000       43.79937700    0.00000000
                                                     2        1.0665000     -122.48827800    0.00000000
                                                     2        1.3201000      170.38290700    0.00000000
                                                     2        1.6045000      -88.12361600    0.00000000
                                                     1        2.2698000        8.00157500    0.00000000
                                                     0        1.7094000        3.67468300    0.00000000
                                      P - D
                                                     2        0.2653000        0.02744700    0.00000000
                                                     2        1.5092000       94.02155300    0.00000000
                                                     2        1.8128000     -187.11548900    0.00000000
                                                     2        2.2120000      122.75196500    0.00000000
                                                     1        5.4856000       12.05337400    0.00000000
                                                     0        7.5189000        5.36371300    0.00000000
    6         28           10
                                      D and up 
                                                     2        0.6047000       -0.39820800    0.00000000
                                                     2        1.9370000       -3.11549500    0.00000000
                                                     2        5.4946000      -11.88599500    0.00000000
                                                     2       18.0895000      -32.50999500    0.00000000
                                                     1       53.1894000      -11.93502800    0.00000000
                                      S - D
                                                     2        0.9379000       43.79937700    0.00000000
                                                     2        1.0665000     -122.48827800    0.00000000
                                                     2        1.3201000      170.38290700    0.00000000
                                                     2        1.6045000      -88.12361600    0.00000000
                                                     1        2.2698000        8.00157500    0.00000000
                                                     0        1.7094000        3.67468300    0.00000000
                                      P - D
                                                     2        0.2653000        0.02744700    0.00000000
                                                     2        1.5092000       94.02155300    0.00000000
                                                     2        1.8128000     -187.11548900    0.00000000
                                                     2        2.2120000      122.75196500    0.00000000
                                                     1        5.4856000       12.05337400    0.00000000
                                                     0        7.5189000        5.36371300    0.00000000
    7         28           10
                                      D and up 
                                                     2        0.6047000       -0.39820800    0.00000000
                                                     2        1.9370000       -3.11549500    0.00000000
                                                     2        5.4946000      -11.88599500    0.00000000
                                                     2       18.0895000      -32.50999500    0.00000000
                                                     1       53.1894000      -11.93502800    0.00000000
                                      S - D
                                                     2        0.9379000       43.79937700    0.00000000
                                                     2        1.0665000     -122.48827800    0.00000000
                                                     2        1.3201000      170.38290700    0.00000000
                                                     2        1.6045000      -88.12361600    0.00000000
                                                     1        2.2698000        8.00157500    0.00000000
                                                     0        1.7094000        3.67468300    0.00000000
                                      P - D
                                                     2        0.2653000        0.02744700    0.00000000
                                                     2        1.5092000       94.02155300    0.00000000
                                                     2        1.8128000     -187.11548900    0.00000000
                                                     2        2.2120000      122.75196500    0.00000000
                                                     1        5.4856000       12.05337400    0.00000000
                                                     0        7.5189000        5.36371300    0.00000000
    8         28           10
                                      D and up 
                                                     2        0.6047000       -0.39820800    0.00000000
                                                     2        1.9370000       -3.11549500    0.00000000
                                                     2        5.4946000      -11.88599500    0.00000000
                                                     2       18.0895000      -32.50999500    0.00000000
                                                     1       53.1894000      -11.93502800    0.00000000
                                      S - D
                                                     2        0.9379000       43.79937700    0.00000000
                                                     2        1.0665000     -122.48827800    0.00000000
                                                     2        1.3201000      170.38290700    0.00000000
                                                     2        1.6045000      -88.12361600    0.00000000
                                                     1        2.2698000        8.00157500    0.00000000
                                                     0        1.7094000        3.67468300    0.00000000
                                      P - D
                                                     2        0.2653000        0.02744700    0.00000000
                                                     2        1.5092000       94.02155300    0.00000000
                                                     2        1.8128000     -187.11548900    0.00000000
                                                     2        2.2120000      122.75196500    0.00000000
                                                     1        5.4856000       12.05337400    0.00000000
                                                     0        7.5189000        5.36371300    0.00000000
    9         28           10
                                      D and up 
                                                     2        0.6047000       -0.39820800    0.00000000
                                                     2        1.9370000       -3.11549500    0.00000000
                                                     2        5.4946000      -11.88599500    0.00000000
                                                     2       18.0895000      -32.50999500    0.00000000
                                                     1       53.1894000      -11.93502800    0.00000000
                                      S - D
                                                     2        0.9379000       43.79937700    0.00000000
                                                     2        1.0665000     -122.48827800    0.00000000
                                                     2        1.3201000      170.38290700    0.00000000
                                                     2        1.6045000      -88.12361600    0.00000000
                                                     1        2.2698000        8.00157500    0.00000000
                                                     0        1.7094000        3.67468300    0.00000000
                                      P - D
                                                     2        0.2653000        0.02744700    0.00000000
                                                     2        1.5092000       94.02155300    0.00000000
                                                     2        1.8128000     -187.11548900    0.00000000
                                                     2        2.2120000      122.75196500    0.00000000
                                                     1        5.4856000       12.05337400    0.00000000
                                                     0        7.5189000        5.36371300    0.00000000
   10         28
                                   No pseudopotential on this center.
   11         28
                                   No pseudopotential on this center.
   12         28
                                   No pseudopotential on this center.
   13         28
                                   No pseudopotential on this center.
   14         28
                                   No pseudopotential on this center.
   15         28
                                   No pseudopotential on this center.
   16         28
                                   No pseudopotential on this center.
   17         28
                                   No pseudopotential on this center.
   18         28
                                   No pseudopotential on this center.
   19         28
                                   No pseudopotential on this center.
   20         28           10
                                      D and up 
                                                     2        0.6047000       -0.39820800    0.00000000
                                                     2        1.9370000       -3.11549500    0.00000000
                                                     2        5.4946000      -11.88599500    0.00000000
                                                     2       18.0895000      -32.50999500    0.00000000
                                                     1       53.1894000      -11.93502800    0.00000000
                                      S - D
                                                     2        0.9379000       43.79937700    0.00000000
                                                     2        1.0665000     -122.48827800    0.00000000
                                                     2        1.3201000      170.38290700    0.00000000
                                                     2        1.6045000      -88.12361600    0.00000000
                                                     1        2.2698000        8.00157500    0.00000000
                                                     0        1.7094000        3.67468300    0.00000000
                                      P - D
                                                     2        0.2653000        0.02744700    0.00000000
                                                     2        1.5092000       94.02155300    0.00000000
                                                     2        1.8128000     -187.11548900    0.00000000
                                                     2        2.2120000      122.75196500    0.00000000
                                                     1        5.4856000       12.05337400    0.00000000
                                                     0        7.5189000        5.36371300    0.00000000
   21         28           10
                                      D and up 
                                                     2        0.6047000       -0.39820800    0.00000000
                                                     2        1.9370000       -3.11549500    0.00000000
                                                     2        5.4946000      -11.88599500    0.00000000
                                                     2       18.0895000      -32.50999500    0.00000000
                                                     1       53.1894000      -11.93502800    0.00000000
                                      S - D
                                                     2        0.9379000       43.79937700    0.00000000
                                                     2        1.0665000     -122.48827800    0.00000000
                                                     2        1.3201000      170.38290700    0.00000000
                                                     2        1.6045000      -88.12361600    0.00000000
                                                     1        2.2698000        8.00157500    0.00000000
                                                     0        1.7094000        3.67468300    0.00000000
                                      P - D
                                                     2        0.2653000        0.02744700    0.00000000
                                                     2        1.5092000       94.02155300    0.00000000
                                                     2        1.8128000     -187.11548900    0.00000000
                                                     2        2.2120000      122.75196500    0.00000000
                                                     1        5.4856000       12.05337400    0.00000000
                                                     0        7.5189000        5.36371300    0.00000000
   22         28           10
                                      D and up 
                                                     2        0.6047000       -0.39820800    0.00000000
                                                     2        1.9370000       -3.11549500    0.00000000
                                                     2        5.4946000      -11.88599500    0.00000000
                                                     2       18.0895000      -32.50999500    0.00000000
                                                     1       53.1894000      -11.93502800    0.00000000
                                      S - D
                                                     2        0.9379000       43.79937700    0.00000000
                                                     2        1.0665000     -122.48827800    0.00000000
                                                     2        1.3201000      170.38290700    0.00000000
                                                     2        1.6045000      -88.12361600    0.00000000
                                                     1        2.2698000        8.00157500    0.00000000
                                                     0        1.7094000        3.67468300    0.00000000
                                      P - D
                                                     2        0.2653000        0.02744700    0.00000000
                                                     2        1.5092000       94.02155300    0.00000000
                                                     2        1.8128000     -187.11548900    0.00000000
                                                     2        2.2120000      122.75196500    0.00000000
                                                     1        5.4856000       12.05337400    0.00000000
                                                     0        7.5189000        5.36371300    0.00000000
   23         28           10
                                      D and up 
                                                     2        0.6047000       -0.39820800    0.00000000
                                                     2        1.9370000       -3.11549500    0.00000000
                                                     2        5.4946000      -11.88599500    0.00000000
                                                     2       18.0895000      -32.50999500    0.00000000
                                                     1       53.1894000      -11.93502800    0.00000000
                                      S - D
                                                     2        0.9379000       43.79937700    0.00000000
                                                     2        1.0665000     -122.48827800    0.00000000
                                                     2        1.3201000      170.38290700    0.00000000
                                                     2        1.6045000      -88.12361600    0.00000000
                                                     1        2.2698000        8.00157500    0.00000000
                                                     0        1.7094000        3.67468300    0.00000000
                                      P - D
                                                     2        0.2653000        0.02744700    0.00000000
                                                     2        1.5092000       94.02155300    0.00000000
                                                     2        1.8128000     -187.11548900    0.00000000
                                                     2        2.2120000      122.75196500    0.00000000
                                                     1        5.4856000       12.05337400    0.00000000
                                                     0        7.5189000        5.36371300    0.00000000
   24         28           10
                                      D and up 
                                                     2        0.6047000       -0.39820800    0.00000000
                                                     2        1.9370000       -3.11549500    0.00000000
                                                     2        5.4946000      -11.88599500    0.00000000
                                                     2       18.0895000      -32.50999500    0.00000000
                                                     1       53.1894000      -11.93502800    0.00000000
                                      S - D
                                                     2        0.9379000       43.79937700    0.00000000
                                                     2        1.0665000     -122.48827800    0.00000000
                                                     2        1.3201000      170.38290700    0.00000000
                                                     2        1.6045000      -88.12361600    0.00000000
                                                     1        2.2698000        8.00157500    0.00000000
                                                     0        1.7094000        3.67468300    0.00000000
                                      P - D
                                                     2        0.2653000        0.02744700    0.00000000
                                                     2        1.5092000       94.02155300    0.00000000
                                                     2        1.8128000     -187.11548900    0.00000000
                                                     2        2.2120000      122.75196500    0.00000000
                                                     1        5.4856000       12.05337400    0.00000000
                                                     0        7.5189000        5.36371300    0.00000000
   25         28           10
                                      D and up 
                                                     2        0.6047000       -0.39820800    0.00000000
                                                     2        1.9370000       -3.11549500    0.00000000
                                                     2        5.4946000      -11.88599500    0.00000000
                                                     2       18.0895000      -32.50999500    0.00000000
                                                     1       53.1894000      -11.93502800    0.00000000
                                      S - D
                                                     2        0.9379000       43.79937700    0.00000000
                                                     2        1.0665000     -122.48827800    0.00000000
                                                     2        1.3201000      170.38290700    0.00000000
                                                     2        1.6045000      -88.12361600    0.00000000
                                                     1        2.2698000        8.00157500    0.00000000
                                                     0        1.7094000        3.67468300    0.00000000
                                      P - D
                                                     2        0.2653000        0.02744700    0.00000000
                                                     2        1.5092000       94.02155300    0.00000000
                                                     2        1.8128000     -187.11548900    0.00000000
                                                     2        2.2120000      122.75196500    0.00000000
                                                     1        5.4856000       12.05337400    0.00000000
                                                     0        7.5189000        5.36371300    0.00000000
   26         28           10
                                      D and up 
                                                     2        0.6047000       -0.39820800    0.00000000
                                                     2        1.9370000       -3.11549500    0.00000000
                                                     2        5.4946000      -11.88599500    0.00000000
                                                     2       18.0895000      -32.50999500    0.00000000
                                                     1       53.1894000      -11.93502800    0.00000000
                                      S - D
                                                     2        0.9379000       43.79937700    0.00000000
                                                     2        1.0665000     -122.48827800    0.00000000
                                                     2        1.3201000      170.38290700    0.00000000
                                                     2        1.6045000      -88.12361600    0.00000000
                                                     1        2.2698000        8.00157500    0.00000000
                                                     0        1.7094000        3.67468300    0.00000000
                                      P - D
                                                     2        0.2653000        0.02744700    0.00000000
                                                     2        1.5092000       94.02155300    0.00000000
                                                     2        1.8128000     -187.11548900    0.00000000
                                                     2        2.2120000      122.75196500    0.00000000
                                                     1        5.4856000       12.05337400    0.00000000
                                                     0        7.5189000        5.36371300    0.00000000
   27         28           10
                                      D and up 
                                                     2        0.6047000       -0.39820800    0.00000000
                                                     2        1.9370000       -3.11549500    0.00000000
                                                     2        5.4946000      -11.88599500    0.00000000
                                                     2       18.0895000      -32.50999500    0.00000000
                                                     1       53.1894000      -11.93502800    0.00000000
                                      S - D
                                                     2        0.9379000       43.79937700    0.00000000
                                                     2        1.0665000     -122.48827800    0.00000000
                                                     2        1.3201000      170.38290700    0.00000000
                                                     2        1.6045000      -88.12361600    0.00000000
                                                     1        2.2698000        8.00157500    0.00000000
                                                     0        1.7094000        3.67468300    0.00000000
                                      P - D
                                                     2        0.2653000        0.02744700    0.00000000
                                                     2        1.5092000       94.02155300    0.00000000
                                                     2        1.8128000     -187.11548900    0.00000000
                                                     2        2.2120000      122.75196500    0.00000000
                                                     1        5.4856000       12.05337400    0.00000000
                                                     0        7.5189000        5.36371300    0.00000000
   28         28           10
                                      D and up 
                                                     2        0.6047000       -0.39820800    0.00000000
                                                     2        1.9370000       -3.11549500    0.00000000
                                                     2        5.4946000      -11.88599500    0.00000000
                                                     2       18.0895000      -32.50999500    0.00000000
                                                     1       53.1894000      -11.93502800    0.00000000
                                      S - D
                                                     2        0.9379000       43.79937700    0.00000000
                                                     2        1.0665000     -122.48827800    0.00000000
                                                     2        1.3201000      170.38290700    0.00000000
                                                     2        1.6045000      -88.12361600    0.00000000
                                                     1        2.2698000        8.00157500    0.00000000
                                                     0        1.7094000        3.67468300    0.00000000
                                      P - D
                                                     2        0.2653000        0.02744700    0.00000000
                                                     2        1.5092000       94.02155300    0.00000000
                                                     2        1.8128000     -187.11548900    0.00000000
                                                     2        2.2120000      122.75196500    0.00000000
                                                     1        5.4856000       12.05337400    0.00000000
                                                     0        7.5189000        5.36371300    0.00000000
 ======================================================================================================
 Ernie: Thresh=  0.10000D-02 Tol=  0.10000D-05 Strict=F.
 There are    86 symmetry adapted cartesian basis functions of AG  symmetry.
 There are    32 symmetry adapted cartesian basis functions of B1G symmetry.
 There are    55 symmetry adapted cartesian basis functions of B2G symmetry.
 There are    55 symmetry adapted cartesian basis functions of B3G symmetry.
 There are    32 symmetry adapted cartesian basis functions of AU  symmetry.
 There are    86 symmetry adapted cartesian basis functions of B1U symmetry.
 There are    55 symmetry adapted cartesian basis functions of B2U symmetry.
 There are    55 symmetry adapted cartesian basis functions of B3U symmetry.
 There are    76 symmetry adapted basis functions of AG  symmetry.
 There are    31 symmetry adapted basis functions of B1G symmetry.
 There are    51 symmetry adapted basis functions of B2G symmetry.
 There are    51 symmetry adapted basis functions of B3G symmetry.
 There are    31 symmetry adapted basis functions of AU  symmetry.
 There are    76 symmetry adapted basis functions of B1U symmetry.
 There are    51 symmetry adapted basis functions of B2U symmetry.
 There are    51 symmetry adapted basis functions of B3U symmetry.
   418 basis functions,  1512 primitive gaussians,   456 cartesian basis functions
   248 alpha electrons      212 beta electrons
       nuclear repulsion energy     11916.3388821260 Hartrees.
 IExCor=  205 DFT=T Ex=S Corr=VWN ExCW=0 ScaHFX=  0.000000
 ScaDFX=  1.000000  1.000000  1.000000  1.000000 ScalE2=  1.000000  1.000000
 IRadAn=      0 IRanWt=     -1 IRanGd=            0 ICorTp=0 IEmpDi=  4
 NAtoms=   28 NActive=   28 NUniq=    5 SFac= 4.00D+00 NAtFMM=   60 NAOKFM=F Big=F
 Integral buffers will be    131072 words long.
 Raffenetti 2 integral format.
 Two-electron integral symmetry is turned on.
 Leave Link  301 at Fri Mar 17 10:01:56 2023, MaxMem=    65536000 cpu:         0.1
 (Enter /home/palacios/Gaussian/g09.D01.nvidia/g09/l302.exe)
 NPDir=0 NMtPBC=     1 NCelOv=     1 NCel=       1 NClECP=     1 NCelD=      1
         NCelK=      1 NCelE2=     1 NClLst=     1 CellRange=     0.0.
 One-electron integrals computed using PRISM.
 One-electron integral symmetry used in STVInt
  16 Symmetry operations used in ECPInt.
 ECPInt:  NShTT=    8001 NPrTT=   94366 LenC2=    6337 LenP2D=   40776.
 LDataN:  DoStor=T MaxTD1= 4 Len=   56
 NBasis=   418 RedAO= T EigKep=  4.62D-03  NBF=    76    31    51    51    31    76    51    51
 NBsUse=   418 1.00D-06 EigRej= -1.00D+00 NBFU=    76    31    51    51    31    76    51    51
 Precomputing XC quadrature grid using
 IXCGrd= 4 IRadAn=           0 IRanWt=          -1 IRanGd=           0 AccXCQ= 0.00D+00.
 Generated NRdTot=       0 NPtTot=           0 NUsed=           0 NTot=          32
 NSgBfM=   428   428   428   428   428 MxSgAt=    28 MxSgA2=    28.
 Leave Link  302 at Fri Mar 17 10:01:58 2023, MaxMem=    65536000 cpu:         7.2
 (Enter /home/palacios/Gaussian/g09.D01.nvidia/g09/l303.exe)
 DipDrv:  MaxL=1.
 Leave Link  303 at Fri Mar 17 10:01:58 2023, MaxMem=    65536000 cpu:         0.1
 (Enter /home/palacios/Gaussian/g09.D01.nvidia/g09/l401.exe)
 ExpMin= 4.40D-02 ExpMax= 3.68D+05 ExpMxC= 1.12D+04 IAcc=2 IRadAn=         4 AccDes= 0.00D+00
 Harris functional with IExCor=  205 and IRadAn=       4 diagonalized for initial guess.
 HarFok:  IExCor=  205 AccDes= 0.00D+00 IRadAn=         4 IDoV= 1 UseB2=F ITyADJ=14
 ICtDFT=  3500011 ScaDFX=  1.000000  1.000000  1.000000  1.000000
 FoFCou: FMM=F IPFlag=           0 FMFlag=      100000 FMFlg1=           0
         NFxFlg=           0 DoJE=T BraDBF=F KetDBF=T FulRan=T
         wScrn=  0.000000 ICntrl=     500 IOpCl=  0 I1Cent=   200000004 NGrid=           0
         NMat0=    1 NMatS0=      1 NMatT0=    0 NMatD0=    1 NMtDS0=    0 NMtDT0=    0
 Petite list used in FoFCou.
 Harris En= -15792.0385692735    
 JPrj=0 DoOrth=F DoCkMO=F.
 Initial guess orbital symmetries:
 Alpha Orbitals:
       Occupied  (B2U) (B1G) (EG) (EG) (EU) (EU) (A1G) (A2U) (A1G)
                 (A2U) (A2U) (A1G) (EG) (EG) (EU) (EU) (B2U) (B1G)
                 (A1G) (A2U) (A2U) (EG) (EG) (EU) (EU) (A1G) (B2U)
                 (B1G) (B1U) (B2G) (EG) (EG) (EU) (EU) (A1U) (A2G)
                 (A2U) (A1G) (EG) (EG) (EU) (EU) (B2U) (B1G) (A2U)
                 (A1G) (EG) (EG) (EU) (EU) (A1G) (A2U) (EG) (EG)
                 (EU) (EU) (B2U) (B1G) (A1G) (A2U) (A1G) (A2U)
                 (EG) (EG) (EU) (EU) (B2U) (B1G) (B1U) (B2G) (EG)
                 (EG) (EU) (EU) (A1G) (A2U) (EG) (EG) (EU) (EU)
                 (A1U) (A2G) (B2U) (B1G) (A1G) (A2U) (EU) (EU)
                 (EG) (EG) (A1G) (A2U) (EU) (EU) (EG) (EG) (B2U)
                 (B1G) (B2G) (B1U) (A2U) (A1G) (EG) (EG) (EU) (EU)
                 (B1U) (B2G) (A1G) (A2U) (EG) (EG) (EU) (EU) (B2U)
                 (B1G) (A2G) (A1U) (B2G) (B1U) (A1G) (A2U) (EU)
                 (EU) (EG) (EG) (EU) (EU) (EG) (EG) (B1G) (B2U)
                 (A1G) (A2U) (EG) (EG) (EU) (EU) (A2G) (A1U) (B2G)
                 (B1U) (A1G) (A2U) (EU) (EU) (EG) (EG) (A2G) (A1U)
                 (A1G) (A2U) (B1G) (B2U) (EG) (EG) (EU) (EU) (B2G)
                 (B1U) (B1G) (B2U) (EU) (EU) (EG) (EG) (EG) (EG)
                 (EU) (EU) (A1G) (A2U) (A2G) (A1U) (EU) (EU) (EG)
                 (EG) (B1G) (B2U) (B2G) (B1U) (A1G) (EU) (EU) (EG)
                 (EG) (A2U) (A1G) (A2U) (B2G) (B1U) (EU) (EU) (EG)
                 (EG) (A1G) (B2G) (B1U) (A2U) (B1G) (B2U) (EG)
                 (EG) (EU) (EU) (A1G) (EU) (EU) (EG) (EG) (A1G)
                 (A2U) (B1G) (B2U) (EU) (EU) (EG) (EG) (EU) (EU)
                 (B2G) (B1U) (A1U) (A2G) (EG) (EG) (B1G) (B2U)
                 (B1G) (B2U) (EU) (EU) (A2U) (A2G) (A1U) (EG) (EG)
                 (B1G) (B2U) (A1G) (B2G) (B1U) (EU) (EU) (A2U)
                 (EG) (EG)
       Virtual   (A1G) (EU) (EU) (EG) (EG) (A2U) (A1G) (EU) (EU)
                 (B1G) (B2U) (EG) (EG) (B2G) (B1U) (A2U) (A1G)
                 (EU) (EU) (EG) (EG) (B1G) (B2U) (EU) (EU) (EG)
                 (EG) (A2U) (A2G) (A1U) (EU) (EU) (A1G) (A2U) (B1G)
                 (B2U) (A1G) (EG) (EG) (A2U) (A1G) (B2G) (B1U)
                 (EU) (EU) (B2G) (B1U) (A2U) (EG) (EG) (A1G) (EU)
                 (EU) (A2U) (EG) (EG) (B1G) (EU) (EU) (EG) (EG)
                 (B2U) (A1G) (EU) (EU) (EG) (EG) (B2G) (A2G) (A1U)
                 (B1U) (B1G) (B2U) (A1G) (A2U) (B1G) (B2U) (EU)
                 (EU) (EG) (EG) (B1G) (B2U) (EU) (EU) (A2U) (EG)
                 (EG) (EU) (EU) (A2G) (A1U) (B1G) (B2U) (A2U) (A1G)
                 (EG) (EG) (EU) (EU) (A1G) (A2U) (EG) (EG) (B1G)
                 (B2U) (EU) (EU) (A2G) (A1U) (B2G) (B1U) (A1G)
                 (EG) (EG) (EU) (EU) (EG) (EG) (A2U) (A1G) (A2U)
                 (EU) (EU) (EG) (EG) (B1G) (B2U) (A1G) (A2U) (B1G)
                 (B2U) (EU) (EU) (EG) (EG) (EU) (EU) (A2U) (A1G)
                 (A2G) (A1U) (B1G) (B2U) (EU) (EU) (EG) (EG) (B2G)
                 (B1U) (A2U) (A1G) (EG) (EG) (EU) (EU) (EG) (EG)
                 (A1G) (A2U) (A1G) (A2U) (EU) (EU) (EG) (EG) (B1G)
                 (B2U) (A2U) (A1G)
 Beta  Orbitals:
       Occupied  (B2U) (B1G) (EG) (EG) (EU) (EU) (A1G) (A2U) (A1G)
                 (A2U) (A2U) (A1G) (EG) (EG) (EU) (EU) (B2U) (B1G)
                 (A1G) (A2U) (A2U) (EG) (EG) (EU) (EU) (A1G) (B2U)
                 (B1G) (B1U) (B2G) (EG) (EG) (EU) (EU) (A1U) (A2G)
                 (A2U) (A1G) (EG) (EG) (EU) (EU) (B2U) (B1G) (A2U)
                 (A1G) (EG) (EG) (EU) (EU) (A1G) (A2U) (EG) (EG)
                 (EU) (EU) (B2U) (B1G) (A1G) (A2U) (A1G) (A2U)
                 (EG) (EG) (EU) (EU) (B2U) (B1G) (B1U) (B2G) (EG)
                 (EG) (EU) (EU) (A1G) (A2U) (EG) (EG) (EU) (EU)
                 (A1U) (A2G) (B2U) (B1G) (A1G) (A2U) (EU) (EU)
                 (EG) (EG) (A1G) (A2U) (EU) (EU) (EG) (EG) (B2U)
                 (B1G) (B2G) (B1U) (A2U) (A1G) (EG) (EG) (EU) (EU)
                 (B1U) (B2G) (A1G) (A2U) (EG) (EG) (EU) (EU) (B2U)
                 (B1G) (A2G) (A1U) (B2G) (B1U) (A1G) (A2U) (EU)
                 (EU) (EG) (EG) (EU) (EU) (EG) (EG) (B1G) (B2U)
                 (A1G) (A2U) (EG) (EG) (EU) (EU) (A2G) (A1U) (B2G)
                 (B1U) (A1G) (A2U) (EU) (EU) (EG) (EG) (A2G) (A1U)
                 (A1G) (A2U) (B1G) (B2U) (EG) (EG) (EU) (EU) (B2G)
                 (B1U) (B1G) (B2U) (EU) (EU) (EG) (EG) (EG) (EG)
                 (EU) (EU) (A1G) (A2U) (A2G) (A1U) (EU) (EU) (EG)
                 (EG) (B1G) (B2U) (B2G) (B1U) (A1G) (EU) (EU) (EG)
                 (EG) (A2U) (A1G) (A2U) (B2G) (B1U) (EU) (EU) (EG)
                 (EG) (A1G) (B2G) (B1U) (A2U) (B1G) (B2U) (EG)
                 (EG) (EU) (EU) (A1G) (EU) (EU) (EG) (EG) (A1G)
       Virtual   (A2U) (B1G) (B2U) (EU) (EU) (EG) (EG) (EU) (EU)
                 (B2G) (B1U) (A1U) (A2G) (EG) (EG) (B1G) (B2U)
                 (B1G) (B2U) (EU) (EU) (A2U) (A2G) (A1U) (EG) (EG)
                 (B1G) (B2U) (A1G) (B2G) (B1U) (EU) (EU) (A2U)
                 (EG) (EG) (A1G) (EU) (EU) (EG) (EG) (A2U) (A1G)
                 (EU) (EU) (B1G) (B2U) (EG) (EG) (B2G) (B1U) (A2U)
                 (A1G) (EU) (EU) (EG) (EG) (B1G) (B2U) (EU) (EU)
                 (EG) (EG) (A2U) (A2G) (A1U) (EU) (EU) (A1G) (A2U)
                 (B1G) (B2U) (A1G) (EG) (EG) (A2U) (A1G) (B2G)
                 (B1U) (EU) (EU) (B2G) (B1U) (A2U) (EG) (EG) (A1G)
                 (EU) (EU) (A2U) (EG) (EG) (B1G) (EU) (EU) (EG)
                 (EG) (B2U) (A1G) (EU) (EU) (EG) (EG) (B2G) (A2G)
                 (A1U) (B1U) (B1G) (B2U) (A1G) (A2U) (B1G) (B2U)
                 (EU) (EU) (EG) (EG) (B1G) (B2U) (EU) (EU) (A2U)
                 (EG) (EG) (EU) (EU) (A2G) (A1U) (B1G) (B2U) (A2U)
                 (A1G) (EG) (EG) (EU) (EU) (A1G) (A2U) (EG) (EG)
                 (B1G) (B2U) (EU) (EU) (A2G) (A1U) (B2G) (B1U)
                 (A1G) (EG) (EG) (EU) (EU) (EG) (EG) (A2U) (A1G)
                 (A2U) (EU) (EU) (EG) (EG) (B1G) (B2U) (A1G) (A2U)
                 (B1G) (B2U) (EU) (EU) (EG) (EG) (EU) (EU) (A2U)
                 (A1G) (A2G) (A1U) (B1G) (B2U) (EU) (EU) (EG) (EG)
                 (B2G) (B1U) (A2U) (A1G) (EG) (EG) (EU) (EU) (EG)
                 (EG) (A1G) (A2U) (A1G) (A2U) (EU) (EU) (EG) (EG)
                 (B1G) (B2U) (A2U) (A1G)
 The electronic state of the initial guess is 37-A2U.
 Initial guess <Sx>= 0.0000 <Sy>= 0.0000 <Sz>=18.0000 <S**2>=******* S=18.0000
 Leave Link  401 at Fri Mar 17 10:01:59 2023, MaxMem=    65536000 cpu:         2.6
 (Enter ../../bin/l502.exe)
 UHF open shell SCF:
 Using DIIS extrapolation, IDIIS=  1040.
 Integral symmetry usage will be decided dynamically.
 IVT=      727750 IEndB=      727750 NGot=    65536000 MDV=    65107243
 LenX=    65107243 LenY=    64898851
 Requested convergence on RMS density matrix=1.00D-04 within 300 cycles.
 Requested convergence on MAX density matrix=1.00D-02.
 Requested convergence on             energy=1.00D-02.
 No special actions if energy rises.
 Fock matrices will be formed incrementally for  20 cycles.

 Cycle   1  Pass 1  IDiag  1:
 
  ****************************************************************** 
  ***                                                            *** 
  ***                      A t o m i s t i c                     *** 
  ***                      N a n o                               *** 
  ***                      T r a n s p o r t                     *** 
  ***                      G 0 9                                 *** 
  ***                                                            *** 
  ****************************************************************** 
  ***                     Version: 2.7.0                         *** 
  ****************************************************************** 
  *  Copyright (c) by                                              * 
  *                                                                * 
  *  Juan Jose Palacios (1)                                        * 
  *  David Jacob (2)                                               * 
  *  Maria Soriano (1,5)                                           * 
  *  Angel J. Perez-Jimenez (3)                                    * 
  *  Emilio SanFabian (3)                                          * 
  *  Jose Antonio Antonio Verges (4)                               * 
  *  Enrique Louis (5)                                             * 
  *  Wynand Dednam (5)                                             * 
  *                                                                * 
  * (1) Departamento de Fisica de la Materia Condensada            * 
  *     Universidad Autonoma de Madrid                             * 
  *     28049 Madrid (SPAIN)                                       * 
  * (2) Theory Department                                          * 
  *     Max-Planck-Institute for Microstructure Physics            * 
  *     Halle, 06120 (GERMANY)                                     * 
  * (3) Departamento de Quimica Fisica                             * 
  *     Universidad de Alicante                                    * 
  *     03690 Alicante (SPAIN)                                     * 
  * (4) Insto. de Ciencias de Materiales de Madrid (ICMM)          * 
  *     Consejo Superior de Investigacion y Ciencia (CSIC)         * 
  *     28049 Madrid (SPAIN)                                       * 
  * (5) Departamento de Fisica Aplicada                            * 
  *     Universidad de Alicante                                    * 
  *     03690 Alicante (SPAIN)                                     * 
  *                                                                * 
  ****************************************************************** 
 
  ****************************************************************** 
  *                                                                * 
  *              Initializing ANT.G09 modules                      * 
  *                                                                * 
  ****************************************************************** 
 
 Scanning Ni9-Ni4-Ni-Ni-Ni4-Ni9.doll.ant file for parameter specifications...
 Done.
 ****************************
 Basic calculation parameters
 ****************************
 ALPHA      =    2.9999999999999999E-002
 NPULAY     =                         4
 CHARGEACC  =    1.0000000000000000E-004  %
 FERMIACC   =    1.0000000000000000E-004  %
 PACC       =    9.9999999999999995E-007  %
 SL         =    1.0000000000000000E-002
 FULLACC    =   F
 MAX        =                        15
 NIP        =                       127
 SELFACC    =    9.9999999999999995E-007
 SMALL      =    0.1000000000000000     
 SMALLD     =    0.1000000000000000       A
 BIASVOLT   =     0.000000000000000       V
 QEXCESS    =     0.000000000000000      electrons
 ETA        =    1.0000000000000000E-010
 GLUE       =     1.000000000000000     
 FERMISTART =    -5.000000000000000       eV
 FIXEFERMI  =   F
 DMIMAG     =   F
 FMIXING    =   F
 ************************
 Bethe lattice parameters
 ************************
 TYPE1      = BETHE     
 TYPE2      = BETHE     
 BLPAR1     = Papacon-sd          
 BLPAR2     = Papacon-sd          
 NEMBED1    = ? 
 NEMBED2    = ? 
 NPC        =                         1
 NATOMEL1   = ? 
 NATOMEL2   = ? 
 OVERLAP    = System Overlap
 **********************************
 Spin-resolved transport parameters
 **********************************
 SWOFFSPL   =    1.0000000000000000E-003
 NSPINLOCK  =                         5
 NALPHA     =                        -1
 NBETA      =                        -1
 DU         =   F
 UD         =   F
 DD         =   F
 MRSTART    =                         0
 SPINDEL    =   F
 SPINEDIT   =                         0
 SOC        =   T
 SOCFAC_P   =     0.000000000000000     
 SOCFAC_D   =     0.000000000000000     
 SOCFAC_F   =     0.000000000000000     
 RCUT       =     0.000000000000000       bohr
 SOC_CFF_P  =     0.000000000000000       eV
 SOC_CFF_D  =     0.000000000000000       eV
 SOC_CFF_F  =     0.000000000000000       eV
 SOCFACATOM =                         1
  10   150.0000    50.0000     0.0000     1.0000
 SOCEDIT    =                         0
 POL        =   F
 ROT        =   F
 THETA      =     0.000000000000000       degrees
 PHI        =     0.000000000000000       degrees
 SPINROTATO =                         0
 SOCEDIT    =                         0
 ***********************
 Correlations parameters
 ***********************
 CORRBLOCKS =                         0
 PORTHO     =   F
 HYBFUNC    =   F
 DFT+U      =   F
 DIAGCORRBL =   F
 MOLBLOCKS =                         0
 UPLUS =     0.000000000000000     
 *****************
 Output parameters
 *****************
 HAMILTON   =   F
 MULLIKEN   =   F
 HTRANSM    =   F
 ESTEP      =    1.0000000000000000E-002
 DOSENERGY  =     0.000000000000000     
 EW1        =    -3.000000000000000     
 EW2        =     3.000000000000000     
 LDOS_BEG   =                         1
 LDOS_END   =                         0
 RTM_BEG    =                         1
 RTM_END    =                         0
 NCHANNELS  =                         0
 LEADDOS    =   F
 PRTHATOM   =                         1
 -------------------
 Initializing device
 -------------------
 ----------------------------------------------------------
 Analyzing cluster for the connection of the  Bethe Lattice
 ----------------------------------------------------------
 
 Atom type of lead 1: Ni
 Atom type of lead 2: Ni
 
    1   28  10.    6    1    6
    2   28  10.    6    7   12
    3   28  10.    6   13   18
    4   28  10.    6   19   24
    5   28  10.    6   25   30
    6   28  10.    6   31   36
    7   28  10.    6   37   42
    8   28  10.    6   43   48
    9   28  10.    6   49   54
   10   28  28.   31   55   85
   11   28  28.   31   86  116
   12   28  28.   31  117  147
   13   28  28.   31  148  178
   14   28  28.   31  179  209
   15   28  28.   31  210  240
   16   28  28.   31  241  271
   17   28  28.   31  272  302
   18   28  28.   31  303  333
   19   28  28.   31  334  364
   20   28  10.    6  365  370
   21   28  10.    6  371  376
   22   28  10.    6  377  382
   23   28  10.    6  383  388
   24   28  10.    6  389  394
   25   28  10.    6  395  400
   26   28  10.    6  401  406
   27   28  10.    6  407  412
   28   28  10.    6  413  418
 
  Center of charge:
   0.000000  -0.000000  -0.000000
 
  Atoms in left electrode:                       14
   1  Ni   0.000000   6.670733   9.127377
   2  Ni  -3.335367   3.335367   9.127377
   3  Ni   3.335367   3.335367   9.127377
   4  Ni  -6.670733   0.000000   9.127377
   5  Ni   0.000000   0.000000   9.127377
   6  Ni  -3.335367  -3.335367   9.127377
   7  Ni   6.670733  -0.000000   9.127377
   8  Ni   3.335367  -3.335367   9.127377
   9  Ni  -0.000000  -6.670733   9.127377
  10  Ni   0.000000   3.335367   5.792011
  11  Ni  -3.335367   0.000000   5.792011
  12  Ni  -0.000000  -3.335367   5.792011
  13  Ni   3.335367  -0.000000   5.792011
  14  Ni   0.000000   0.000000   2.456644
 
  Atoms in molecule:                        0
 
  Atoms in right electrode:                       14
  15  Ni   0.000000   6.670733  -9.127377
  16  Ni  -3.335367   3.335367  -9.127377
  17  Ni   3.335367   3.335367  -9.127377
  18  Ni  -6.670733   0.000000  -9.127377
  19  Ni   0.000000   0.000000  -9.127377
  20  Ni  -3.335367  -3.335367  -9.127377
  21  Ni   6.670733  -0.000000  -9.127377
  22  Ni   3.335367  -3.335367  -9.127377
  23  Ni  -0.000000  -6.670733  -9.127377
  24  Ni   0.000000   3.335367  -5.792011
  25  Ni  -3.335367   0.000000  -5.792011
  26  Ni  -0.000000  -3.335367  -5.792011
  27  Ni   3.335367  -0.000000  -5.792011
  28  Ni   0.000000   0.000000  -2.456644
 
 Plane 1
 with normal vector (  0.000000, -0.000000,  1.000000 )
 has    9 atoms:
    1    1   0.000000   6.670733   9.127377
    2    1  -3.335367   3.335367   9.127377
    3    1   3.335367   3.335367   9.127377
    4    1  -6.670733   0.000000   9.127377
    5    1   0.000000   0.000000   9.127377
    6    1  -3.335367  -3.335367   9.127377
    7    1   6.670733  -0.000000   9.127377
    8    1   3.335367  -3.335367   9.127377
    9    1  -0.000000  -6.670733   9.127377
 
 Plane 2
 with normal vector ( -0.000000,  0.000000, -1.000000 )
 has    9 atoms:
[...]
                    CP:  1.13D-01  5.79D-02  2.67D-01  4.21D-01  6.81D-02
                    CP:  8.61D-02  2.37D-01
 E= -15774.7307325016     Delta-E=      -31.342071852465 Rises=F Damp=F
 DIIS: error= 3.24D-01 at cycle  13 NSaved=  13.
 NSaved=13 IEnMin= 9 EnMin= -15783.7118407001     IErMin= 2 ErrMin= 9.34D-02
 ErrMax= 3.24D-01  0.00D+00 EMaxC= 1.00D-01 BMatC= 6.30D+01 BMatP= 1.68D+01
 IDIUse=2 WtCom= 0.00D+00 WtEn= 1.00D+00
 EnCoef did   100 forward-backward iterations
 Coeff-En:   0.000D+00 0.000D+00 0.000D+00 0.000D+00 0.000D+00 0.000D+00
 Coeff-En:   0.000D+00 0.000D+00 0.557D+00 0.842D-02 0.218D+00 0.182D-03
 Coeff-En:   0.217D+00
 Coeff:      0.000D+00 0.000D+00 0.000D+00 0.000D+00 0.000D+00 0.000D+00
 Coeff:      0.000D+00 0.000D+00 0.557D+00 0.842D-02 0.218D+00 0.182D-03
 Coeff:      0.217D+00
 Gap=     0.013 Goal=   None    Shift=    0.000
 Gap=     0.002 Goal=   None    Shift=    0.000
 RMSDP=9.96D-03 MaxDP=9.12D-01 DE=-3.13D+01 OVMax= 5.79D-01

 Cycle  14  Pass 1  IDiag  1:
 RMSU=  7.01D-03    CP:  9.57D-01  1.42D-01  1.48D-01 -8.91D-03  2.95D-01
                    CP:  1.16D-01  3.76D-01  7.10D-02  5.04D-01  1.61D-01
                    CP:  1.63D-01  3.05D-02  5.85D-02
 E= -15776.4453801766     Delta-E=       -1.714647674926 Rises=F Damp=F
 -------------------------------------------------------------------------
 Computing the density matrix at cycle:                       14
 -------------------------------------------------------------------------
 -----------------------
 Estimated Energy Bounds
 -----------------------
 EMin=   -8161.920175048735     
 EMax=    567.7921643030113     
 -----------------------
  Total DOS Point Check 
 -----------------------
 Checking energy bounds [EMin, EMax] such that ...
 ...Total Integrated Spectral Weight (TISW)= 836
TotCharge/Gaussian quadrature gives     3    480.99885
TotCharge/Gaussian quadrature gives     7    675.17826
TotCharge/Gaussian quadrature gives    15    834.13005
TotCharge/Gaussian quadrature gives    31    828.88684
TotCharge/Gaussian quadrature gives    63    834.73945
TotCharge/Gaussian quadrature gives   127    836.03481
TotCharge/Gaussian quadrature gives   255    835.99679
TotCharge/Gaussian quadrature has converged after 255 steps. Error:      0.00320
TotCharge/Gaussian quadrature gives      835.99999
 EMin=      -8161.920  EMax=        567.792  TISW=   835.99999 OK
 --------------------------------------------------
 SPINLOCK: NAlpha-NBeta =       36.0
 Spin alpha
 MULLER method
 Integration of the density matrix on the complex plane has needed   32 points
 Integration of the density matrix on the complex plane has needed   32 points
 Integration of the density matrix on the complex plane has needed   32 points
 Integration of the density matrix on the complex plane has needed   32 points
 Integration of the density matrix on the complex plane has needed   32 points
 Integration of the density matrix on the complex plane has needed   32 points
 Integration of the density matrix on the complex plane has needed   32 points
 Integration of the density matrix on the complex plane has needed   32 points
 Integration of the density matrix on the complex plane has needed   32 points
 Integration of the density matrix on the complex plane has needed   32 points
 Integration of the density matrix on the complex plane has needed   32 points
 Integration of the density matrix on the complex plane has needed   32 points
 Integration of the density matrix on the complex plane has needed   32 points
 --------------------------------------------------------
 Fermi energy for alpha electrons=   7.79647  +/-  0.00124
 
 Number of alpha electrons:  248.00006
 --------------------------------------------------------
 Spin beta
 MULLER method
 Integration of the density matrix on the complex plane has needed   32 points
 Integration of the density matrix on the complex plane has needed   16 points
 Integration of the density matrix on the complex plane has needed   32 points
 Integration of the density matrix on the complex plane has needed   32 points
 Integration of the density matrix on the complex plane has needed   32 points
 Integration of the density matrix on the complex plane has needed   32 points
 Integration of the density matrix on the complex plane has needed   32 points
 Integration of the density matrix on the complex plane has needed   32 points
 Integration of the density matrix on the complex plane has needed   32 points
 Integration of the density matrix on the complex plane has needed   32 points
 Integration of the density matrix on the complex plane has needed   32 points
 Integration of the density matrix on the complex plane has needed   32 points
 Integration of the density matrix on the complex plane has needed   32 points
 Integration of the density matrix on the complex plane has needed   32 points
 Integration of the density matrix on the complex plane has needed   32 points
 --------------------------------------------------------
 Fermi energy for beta electrons=    1.48624  +/-  0.00082
 
 Number of beta electrons:   211.99928
 
 Total number of electrons:   459.99934
 --------------------------------------------------------
 DIIS: error= 3.04D-01 at cycle  14 NSaved=  14.
 NSaved=14 IEnMin= 9 EnMin= -15783.7118407001     IErMin= 2 ErrMin= 9.34D-02
 ErrMax= 3.04D-01  0.00D+00 EMaxC= 1.00D-01 BMatC= 3.60D+01 BMatP= 1.68D+01
 IDIUse=2 WtCom= 0.00D+00 WtEn= 1.00D+00
 EnCoef did   100 forward-backward iterations
 Rare condition: small coef for last iteration: -0.156D-15
 Coeff-En:   0.282D-01 0.000D+00 0.000D+00 0.000D+00 0.000D+00 0.000D+00
 Coeff-En:   0.000D+00 0.000D+00 0.487D+00 0.000D+00 0.190D+00 0.000D+00
 Coeff-En:   0.136D+00 0.159D+00
 Coeff:      0.282D-01 0.000D+00 0.000D+00 0.000D+00 0.000D+00 0.000D+00
 Coeff:      0.000D+00 0.000D+00 0.487D+00 0.000D+00 0.190D+00 0.000D+00
 Coeff:      0.136D+00 0.159D+00
 RMSDP=1.50D-03 MaxDP=1.35D-01 DE=-1.71D+00 OVMax= 5.79D-01

 Cycle  15  Pass 1  IDiag  1:
 E= -15777.9607312844     Delta-E=       -1.515351107853 Rises=F Damp=F
 -------------------------------------------------------------------------
 Computing the density matrix at cycle:                       15
 -------------------------------------------------------------------------
 SPINLOCK: NAlpha-NBeta =       36.0
 Spin alpha
 MULLER method
 Integration of the density matrix on the complex plane has needed   32 points
 Integration of the density matrix on the complex plane has needed   32 points
 Integration of the density matrix on the complex plane has needed   32 points
 Integration of the density matrix on the complex plane has needed   32 points
 Integration of the density matrix on the complex plane has needed   32 points
 Integration of the density matrix on the complex plane has needed   32 points
 Integration of the density matrix on the complex plane has needed   32 points
 Integration of the density matrix on the complex plane has needed   32 points
 Integration of the density matrix on the complex plane has needed   32 points
 Integration of the density matrix on the complex plane has needed   32 points
 Integration of the density matrix on the complex plane has needed   32 points
 --------------------------------------------------------
 Fermi energy for alpha electrons=   4.34212  +/-  0.00041
 
 Number of alpha electrons:  248.00023
 --------------------------------------------------------
 Spin beta
 MULLER method
 Integration of the density matrix on the complex plane has needed   32 points
 Integration of the density matrix on the complex plane has needed   32 points
 Integration of the density matrix on the complex plane has needed   32 points
 Integration of the density matrix on the complex plane has needed   32 points
 Integration of the density matrix on the complex plane has needed   32 points
 Integration of the density matrix on the complex plane has needed   32 points
 Integration of the density matrix on the complex plane has needed   32 points
 Integration of the density matrix on the complex plane has needed   32 points
 --------------------------------------------------------
 Fermi energy for beta electrons=    1.74134  +/-  0.00004
 
 Number of beta electrons:   212.00000
 
 Total number of electrons:   460.00023
 --------------------------------------------------------
 RMSDP=9.35D-04 MaxDP=6.89D-02 DE=-1.52D+00 OVMax= 5.79D-01

 Cycle  16  Pass 1  IDiag  1:
 E= -15779.0563576429     Delta-E=       -1.095626358463 Rises=F Damp=F
 -------------------------------------------------------------------------
 Computing the density matrix at cycle:                       16
 -------------------------------------------------------------------------
 SPINLOCK: NAlpha-NBeta =       36.0
 Spin alpha
 MULLER method
 Integration of the density matrix on the complex plane has needed   32 points
 Integration of the density matrix on the complex plane has needed   32 points
 Integration of the density matrix on the complex plane has needed   32 points
 Integration of the density matrix on the complex plane has needed   32 points
 Integration of the density matrix on the complex plane has needed   32 points
 Integration of the density matrix on the complex plane has needed   32 points
 Integration of the density matrix on the complex plane has needed   32 points
 Integration of the density matrix on the complex plane has needed   32 points
 Integration of the density matrix on the complex plane has needed   32 points
 Integration of the density matrix on the complex plane has needed   32 points
 Integration of the density matrix on the complex plane has needed   32 points
 --------------------------------------------------------
 Fermi energy for alpha electrons=   1.59957  +/-  0.00002
 
 Number of alpha electrons:  247.99999
 --------------------------------------------------------
 Spin beta
 MULLER method
 Integration of the density matrix on the complex plane has needed   32 points
 Integration of the density matrix on the complex plane has needed   32 points
 Integration of the density matrix on the complex plane has needed   32 points
 Integration of the density matrix on the complex plane has needed   32 points
 Integration of the density matrix on the complex plane has needed   32 points
 Integration of the density matrix on the complex plane has needed   32 points
 Integration of the density matrix on the complex plane has needed   32 points
 Integration of the density matrix on the complex plane has needed   32 points
 --------------------------------------------------------
 Fermi energy for beta electrons=    1.05208  +/-  0.00000
 
 Number of beta electrons:   212.00000
 
 Total number of electrons:   459.99999
 --------------------------------------------------------
 RMSDP=7.14D-04 MaxDP=6.17D-02 DE=-1.10D+00 OVMax= 5.79D-01

 Cycle  17  Pass 1  IDiag  1:
 E= -15779.9418797630     Delta-E=       -0.885522120087 Rises=F Damp=F
 -------------------------------------------------------------------------
 Computing the density matrix at cycle:                       17
 -------------------------------------------------------------------------
 SPINLOCK: NAlpha-NBeta =       36.0
 Spin alpha
 MULLER method
 Integration of the density matrix on the complex plane has needed   32 points
 Integration of the density matrix on the complex plane has needed   32 points
 Integration of the density matrix on the complex plane has needed   32 points
 Integration of the density matrix on the complex plane has needed   32 points
 Integration of the density matrix on the complex plane has needed   32 points
 Integration of the density matrix on the complex plane has needed   32 points
 Integration of the density matrix on the complex plane has needed   32 points
 Integration of the density matrix on the complex plane has needed   32 points
 Integration of the density matrix on the complex plane has needed   32 points
 --------------------------------------------------------
 Fermi energy for alpha electrons=   0.05426  +/-  0.00000
 
 Number of alpha electrons:  248.00000
 --------------------------------------------------------
 Spin beta
 MULLER method
 Integration of the density matrix on the complex plane has needed   32 points
 Integration of the density matrix on the complex plane has needed   32 points
 Integration of the density matrix on the complex plane has needed   32 points
 Integration of the density matrix on the complex plane has needed   32 points
 Integration of the density matrix on the complex plane has needed   32 points
 Integration of the density matrix on the complex plane has needed   32 points
 Integration of the density matrix on the complex plane has needed   32 points
 Integration of the density matrix on the complex plane has needed   32 points
 --------------------------------------------------------
 Fermi energy for beta electrons=   -0.42600  +/-  0.00000
 
 Number of beta electrons:   212.00000
 
 Total number of electrons:   460.00000
 --------------------------------------------------------
 Pulay kick .............
 RMSDP=1.54D-03 MaxDP=1.53D-01 DE=-8.86D-01 OVMax= 5.79D-01

 Cycle  18  Pass 1  IDiag  1:
 E= -15781.6717904523     Delta-E=       -1.729910689304 Rises=F Damp=F
 -------------------------------------------------------------------------
 Computing the density matrix at cycle:                       18
 -------------------------------------------------------------------------
 SPINLOCK: NAlpha-NBeta =       36.0
 Spin alpha
 MULLER method
 Integration of the density matrix on the complex plane has needed   32 points
 Integration of the density matrix on the complex plane has needed   32 points
 Integration of the density matrix on the complex plane has needed   32 points
 Integration of the density matrix on the complex plane has needed   32 points
 Integration of the density matrix on the complex plane has needed   32 points
 Integration of the density matrix on the complex plane has needed   32 points
 Integration of the density matrix on the complex plane has needed   32 points
 Integration of the density matrix on the complex plane has needed   32 points
 --------------------------------------------------------
 Fermi energy for alpha electrons=  -2.12108  +/-  0.00037
 
 Number of alpha electrons:  248.00000
 --------------------------------------------------------
 Spin beta
 MULLER method
 Integration of the density matrix on the complex plane has needed   32 points
 Integration of the density matrix on the complex plane has needed   32 points
 Integration of the density matrix on the complex plane has needed   32 points
 Integration of the density matrix on the complex plane has needed   32 points
 Integration of the density matrix on the complex plane has needed   32 points
 Integration of the density matrix on the complex plane has needed   32 points
 Integration of the density matrix on the complex plane has needed   32 points
 Integration of the density matrix on the complex plane has needed   32 points
 --------------------------------------------------------
 Fermi energy for beta electrons=   -3.00573  +/-  0.00210
 
 Number of beta electrons:   212.00242
 
 Total number of electrons:   460.00242
 --------------------------------------------------------
 RMSDP=3.91D-04 MaxDP=4.60D-02 DE=-1.73D+00 OVMax= 5.79D-01

 Cycle  19  Pass 1  IDiag  1:
 E= -15782.1586111874     Delta-E=       -0.486820735110 Rises=F Damp=F
 -------------------------------------------------------------------------
 Computing the density matrix at cycle:                       19
 -------------------------------------------------------------------------
 MULLER method
 Integration of the density matrix on the complex plane has needed   32 points
 Integration of the density matrix on the complex plane has needed   32 points
 Integration of the density matrix on the complex plane has needed   32 points
 Integration of the density matrix on the complex plane has needed   32 points
 Integration of the density matrix on the complex plane has needed   32 points
 Integration of the density matrix on the complex plane has needed   32 points
 Integration of the density matrix on the complex plane has needed   32 points
 Integration of the density matrix on the complex plane has needed   32 points
 Integration of the density matrix on the complex plane has needed   32 points
 Integration of the density matrix on the complex plane has needed   32 points
 Integration of the density matrix on the complex plane has needed   32 points
 Integration of the density matrix on the complex plane has needed   32 points
 -----------------------------------------------
 Fermi energy=  -2.87665  +/-  0.00002
 
 Number of alpha electrons:  243.97740
 Number of beta electrons:   216.02260
 Total number of electrons:   460.00000
 -----------------------------------------------
 RMSDP=3.65D-04 MaxDP=4.29D-02 DE=-4.87D-01 OVMax= 5.79D-01

 Cycle  20  Pass 1  IDiag  1:
 E= -15782.6040456196     Delta-E=       -0.445434432211 Rises=F Damp=F
 -------------------------------------------------------------------------
 Computing the density matrix at cycle:                       20
 -------------------------------------------------------------------------
 MULLER method
 Integration of the density matrix on the complex plane has needed   32 points
 Integration of the density matrix on the complex plane has needed   32 points
 Integration of the density matrix on the complex plane has needed   32 points
 Integration of the density matrix on the complex plane has needed   32 points
 Integration of the density matrix on the complex plane has needed   32 points
 Integration of the density matrix on the complex plane has needed   32 points
 Integration of the density matrix on the complex plane has needed   32 points
 Integration of the density matrix on the complex plane has needed   32 points
 Integration of the density matrix on the complex plane has needed   32 points
 Integration of the density matrix on the complex plane has needed   32 points
 Integration of the density matrix on the complex plane has needed   32 points
 Integration of the density matrix on the complex plane has needed   32 points
 Integration of the density matrix on the complex plane has needed   32 points
 Integration of the density matrix on the complex plane has needed   32 points
 -----------------------------------------------
 Fermi energy=  -3.07343  +/-  0.00000
 
 Number of alpha electrons:  243.35624
 Number of beta electrons:   216.64376
 Total number of electrons:   460.00000
 -----------------------------------------------
 RMSDP=3.32D-04 MaxDP=3.93D-02 DE=-4.45D-01 OVMax= 5.79D-01

 Cycle  21  Pass 1  IDiag  1:
 E= -15783.0023603622     Delta-E=       -0.398314742572 Rises=F Damp=F
 -------------------------------------------------------------------------
 Computing the density matrix at cycle:                       21
 -------------------------------------------------------------------------
 MULLER method
 Integration of the density matrix on the complex plane has needed   32 points
 Integration of the density matrix on the complex plane has needed   32 points
 Integration of the density matrix on the complex plane has needed   32 points
 Integration of the density matrix on the complex plane has needed   32 points
 Integration of the density matrix on the complex plane has needed   32 points
 Integration of the density matrix on the complex plane has needed   32 points
 Integration of the density matrix on the complex plane has needed   32 points
 Integration of the density matrix on the complex plane has needed   32 points
 Integration of the density matrix on the complex plane has needed   32 points
 Integration of the density matrix on the complex plane has needed   32 points
 Integration of the density matrix on the complex plane has needed   32 points
