 Entering Gaussian System, Link 0=g09
 Input=Ni9-Ni4-Ni-Ni-Ni4-Ni9.F.gjf
 Output=Ni9-Ni4-Ni-Ni-Ni4-Ni9.F.log
 Initial command:
 /home/palacios/Gaussian09/intel/v.D01/g09/l1.exe "/scratch/palacios/Gau-22760.inp" -scrdir="/scratch/palacios/"
 Entering Link 1 = /home/palacios/Gaussian09/intel/v.D01/g09/l1.exe PID=     22761.
  
 Copyright (c) 1988,1990,1992,1993,1995,1998,2003,2009,2013,
            Gaussian, Inc.  All Rights Reserved.
  
 This is part of the Gaussian(R) 09 program.  It is based on
 the Gaussian(R) 03 system (copyright 2003, Gaussian, Inc.),
 the Gaussian(R) 98 system (copyright 1998, Gaussian, Inc.),
 the Gaussian(R) 94 system (copyright 1995, Gaussian, Inc.),
 the Gaussian 92(TM) system (copyright 1992, Gaussian, Inc.),
 the Gaussian 90(TM) system (copyright 1990, Gaussian, Inc.),
 the Gaussian 88(TM) system (copyright 1988, Gaussian, Inc.),
 the Gaussian 86(TM) system (copyright 1986, Carnegie Mellon
 University), and the Gaussian 82(TM) system (copyright 1983,
 Carnegie Mellon University). Gaussian is a federally registered
 trademark of Gaussian, Inc.
  
 This software contains proprietary and confidential information,
 including trade secrets, belonging to Gaussian, Inc.
  
 This software is provided under written license and may be
 used, copied, transmitted, or stored only in accord with that
 written license.
  
 The following legend is applicable only to US Government
 contracts under FAR:
  
                    RESTRICTED RIGHTS LEGEND
  
 Use, reproduction and disclosure by the US Government is
 subject to restrictions as set forth in subparagraphs (a)
 and (c) of the Commercial Computer Software - Restricted
 Rights clause in FAR 52.227-19.
  
 Gaussian, Inc.
 340 Quinnipiac St., Bldg. 40, Wallingford CT 06492
  
  
 ---------------------------------------------------------------
 Warning -- This program may not be used in any manner that
 competes with the business of Gaussian, Inc. or will provide
 assistance to any competitor of Gaussian, Inc.  The licensee
 of this program is prohibited from giving any competitor of
 Gaussian, Inc. access to this program.  By using this program,
 the user acknowledges that Gaussian, Inc. is engaged in the
 business of creating and licensing software in the field of
 computational chemistry and represents and warrants to the
 licensee that it is not a competitor of Gaussian, Inc. and that
 it will not use this program in any manner prohibited above.
 ---------------------------------------------------------------
  

 Cite this work as:
 Gaussian 09, Revision D.01,
 M. J. Frisch, G. W. Trucks, H. B. Schlegel, G. E. Scuseria, 
 M. A. Robb, J. R. Cheeseman, G. Scalmani, V. Barone, B. Mennucci, 
 G. A. Petersson, H. Nakatsuji, M. Caricato, X. Li, H. P. Hratchian, 
 A. F. Izmaylov, J. Bloino, G. Zheng, J. L. Sonnenberg, M. Hada, 
 M. Ehara, K. Toyota, R. Fukuda, J. Hasegawa, M. Ishida, T. Nakajima, 
 Y. Honda, O. Kitao, H. Nakai, T. Vreven, J. A. Montgomery, Jr., 
 J. E. Peralta, F. Ogliaro, M. Bearpark, J. J. Heyd, E. Brothers, 
 K. N. Kudin, V. N. Staroverov, T. Keith, R. Kobayashi, J. Normand, 
 K. Raghavachari, A. Rendell, J. C. Burant, S. S. Iyengar, J. Tomasi, 
 M. Cossi, N. Rega, J. M. Millam, M. Klene, J. E. Knox, J. B. Cross, 
 V. Bakken, C. Adamo, J. Jaramillo, R. Gomperts, R. E. Stratmann, 
 O. Yazyev, A. J. Austin, R. Cammi, C. Pomelli, J. W. Ochterski, 
 R. L. Martin, K. Morokuma, V. G. Zakrzewski, G. A. Voth, 
 P. Salvador, J. J. Dannenberg, S. Dapprich, A. D. Daniels, 
 O. Farkas, J. B. Foresman, J. V. Ortiz, J. Cioslowski, 
 and D. J. Fox, Gaussian, Inc., Wallingford CT, 2013.
 
 ******************************************
 Gaussian 09:  ES64L-G09RevD.01 24-Apr-2013
                 9-Jul-2022 
 ******************************************
 %mem=1000mb
 %nproc=16
 Will use up to   16 processors via shared memory.
 %Subst L101 ../../bin
 %Subst L502 ../../bin
 -----------------------------------------------------------------
 #p LSDA/gen pseudo=read scf=(maxcycle=300,conver=5,nodamp) nosymm
 -----------------------------------------------------------------
 1/38=1/1;
 2/12=2,15=1,17=6,18=5,40=1/2;
 3/5=7,11=2,16=1,17=8,25=1,30=1,74=205/1,2,3;
 4//1;
 5/5=2,6=5,7=300,18=-2,38=5/2;
 6/7=2,8=2,9=2,10=2,28=1/1;
 99/5=1,9=1/99;
 Leave Link    1 at Sat Jul  9 14:35:44 2022, MaxMem=   131072000 cpu:         0.8
 (Enter ../../bin/l101.exe)
 -----------------------
 Ni9-Ni4-Ni-Ni-Ni4-Ni9.F
 -----------------------
 Symbolic Z-matrix:
 Charge =  0 Multiplicity =31
 Ni                    0.       -3.5      -4.75 
 Ni                   -3.5       0.       -4.75 
 Ni                    3.5       0.       -4.75 
 Ni                    0.        3.5      -4.75 
 Ni                   -1.75     -1.75     -4.75 
 Ni                    1.75     -1.75     -4.75 
 Ni                    0.        0.       -4.75 
 Ni                   -1.75      1.75     -4.75 
 Ni                    1.75      1.75     -4.75 
 Ni                    0.       -1.75     -3. 
 Ni                   -1.75      0.       -3. 
 Ni                    1.75      0.       -3. 
 Ni                    0.        1.75     -3. 
 Ni                    0.        0.       -1.25 
 Ni                    0.        0.        1.25 
 Ni                    0.       -1.75      3. 
 Ni                   -1.75      0.        3. 
 Ni                    1.75      0.        3. 
 Ni                    0.        1.75      3. 
 Ni                   -1.75     -1.75      4.75 
 Ni                    1.75     -1.75      4.75 
 Ni                    0.        0.        4.75 
 Ni                   -1.75      1.75      4.75 
 Ni                    1.75      1.75      4.75 
 Ni                    0.       -3.5       4.75 
 Ni                   -3.5       0.        4.75 
 Ni                    3.5       0.        4.75 
 Ni                    0.        3.5       4.75 
 
 NAtoms=     28 NQM=       28 NQMF=       0 NMMI=      0 NMMIF=      0
                NMic=       0 NMicF=      0.
                    Isotopes and Nuclear Properties:
 (Nuclear quadrupole moments (NQMom) in fm**2, nuclear magnetic moments (NMagM)
  in nuclear magnetons)

  Atom         1           2           3           4           5           6           7           8           9          10
 IAtWgt=          58          58          58          58          58          58          58          58          58          58
 AtmWgt=  57.9353471  57.9353471  57.9353471  57.9353471  57.9353471  57.9353471  57.9353471  57.9353471  57.9353471  57.9353471
 NucSpn=           0           0           0           0           0           0           0           0           0           0
 AtZEff=   0.0000000   0.0000000   0.0000000   0.0000000   0.0000000   0.0000000   0.0000000   0.0000000   0.0000000   0.0000000
 NQMom=    0.0000000   0.0000000   0.0000000   0.0000000   0.0000000   0.0000000   0.0000000   0.0000000   0.0000000   0.0000000
 NMagM=    0.0000000   0.0000000   0.0000000   0.0000000   0.0000000   0.0000000   0.0000000   0.0000000   0.0000000   0.0000000
 AtZNuc=  28.0000000  28.0000000  28.0000000  28.0000000  28.0000000  28.0000000  28.0000000  28.0000000  28.0000000  28.0000000

  Atom        11          12          13          14          15          16          17          18          19          20
 IAtWgt=          58          58          58          58          58          58          58          58          58          58
 AtmWgt=  57.9353471  57.9353471  57.9353471  57.9353471  57.9353471  57.9353471  57.9353471  57.9353471  57.9353471  57.9353471
 NucSpn=           0           0           0           0           0           0           0           0           0           0
 AtZEff=   0.0000000   0.0000000   0.0000000   0.0000000   0.0000000   0.0000000   0.0000000   0.0000000   0.0000000   0.0000000
 NQMom=    0.0000000   0.0000000   0.0000000   0.0000000   0.0000000   0.0000000   0.0000000   0.0000000   0.0000000   0.0000000
 NMagM=    0.0000000   0.0000000   0.0000000   0.0000000   0.0000000   0.0000000   0.0000000   0.0000000   0.0000000   0.0000000
 AtZNuc=  28.0000000  28.0000000  28.0000000  28.0000000  28.0000000  28.0000000  28.0000000  28.0000000  28.0000000  28.0000000

  Atom        21          22          23          24          25          26          27          28
 IAtWgt=          58          58          58          58          58          58          58          58
 AtmWgt=  57.9353471  57.9353471  57.9353471  57.9353471  57.9353471  57.9353471  57.9353471  57.9353471
 NucSpn=           0           0           0           0           0           0           0           0
 AtZEff=   0.0000000   0.0000000   0.0000000   0.0000000   0.0000000   0.0000000   0.0000000   0.0000000
 NQMom=    0.0000000   0.0000000   0.0000000   0.0000000   0.0000000   0.0000000   0.0000000   0.0000000
 NMagM=    0.0000000   0.0000000   0.0000000   0.0000000   0.0000000   0.0000000   0.0000000   0.0000000
 AtZNuc=  28.0000000  28.0000000  28.0000000  28.0000000  28.0000000  28.0000000  28.0000000  28.0000000
 Leave Link  101 at Sat Jul  9 14:35:45 2022, MaxMem=   131072000 cpu:         1.1
 (Enter /home/palacios/Gaussian09/intel/v.D01/g09/l202.exe)
                          Input orientation:                          
 ---------------------------------------------------------------------
 Center     Atomic      Atomic             Coordinates (Angstroms)
 Number     Number       Type             X           Y           Z
 ---------------------------------------------------------------------
      1         28           0        0.000000   -3.500000   -4.750000
      2         28           0       -3.500000    0.000000   -4.750000
      3         28           0        3.500000    0.000000   -4.750000
      4         28           0        0.000000    3.500000   -4.750000
      5         28           0       -1.750000   -1.750000   -4.750000
      6         28           0        1.750000   -1.750000   -4.750000
      7         28           0        0.000000    0.000000   -4.750000
      8         28           0       -1.750000    1.750000   -4.750000
      9         28           0        1.750000    1.750000   -4.750000
     10         28           0        0.000000   -1.750000   -3.000000
     11         28           0       -1.750000    0.000000   -3.000000
     12         28           0        1.750000    0.000000   -3.000000
     13         28           0        0.000000    1.750000   -3.000000
     14         28           0        0.000000    0.000000   -1.250000
     15         28           0        0.000000    0.000000    1.250000
     16         28           0        0.000000   -1.750000    3.000000
     17         28           0       -1.750000    0.000000    3.000000
     18         28           0        1.750000    0.000000    3.000000
     19         28           0        0.000000    1.750000    3.000000
     20         28           0       -1.750000   -1.750000    4.750000
     21         28           0        1.750000   -1.750000    4.750000
     22         28           0        0.000000    0.000000    4.750000
     23         28           0       -1.750000    1.750000    4.750000
     24         28           0        1.750000    1.750000    4.750000
     25         28           0        0.000000   -3.500000    4.750000
     26         28           0       -3.500000    0.000000    4.750000
     27         28           0        3.500000    0.000000    4.750000
     28         28           0        0.000000    3.500000    4.750000
 ---------------------------------------------------------------------
                    Distance matrix (angstroms):
                    1          2          3          4          5
     1  Ni   0.000000
     2  Ni   4.949747   0.000000
     3  Ni   4.949747   7.000000   0.000000
     4  Ni   7.000000   4.949747   4.949747   0.000000
     5  Ni   2.474874   2.474874   5.533986   5.533986   0.000000
     6  Ni   2.474874   5.533986   2.474874   5.533986   3.500000
     7  Ni   3.500000   3.500000   3.500000   3.500000   2.474874
     8  Ni   5.533986   2.474874   5.533986   2.474874   3.500000
     9  Ni   5.533986   5.533986   2.474874   2.474874   4.949747
    10  Ni   2.474874   4.286607   4.286607   5.533986   2.474874
    11  Ni   4.286607   2.474874   5.533986   4.286607   2.474874
    12  Ni   4.286607   5.533986   2.474874   4.286607   4.286607
    13  Ni   5.533986   4.286607   4.286607   2.474874   4.286607
    14  Ni   4.949747   4.949747   4.949747   4.949747   4.286607
    15  Ni   6.946222   6.946222   6.946222   6.946222   6.490377
    16  Ni   7.945124   8.681878   8.681878   9.360823   7.945124
    17  Ni   8.681878   7.945124   9.360823   8.681878   7.945124
    18  Ni   8.681878   9.360823   7.945124   8.681878   8.681878
    19  Ni   9.360823   8.681878   8.681878   7.945124   8.681878
    20  Ni   9.817077   9.817077  10.994317  10.994317   9.500000
    21  Ni   9.817077  10.994317   9.817077  10.994317  10.124228
    22  Ni  10.124228  10.124228  10.124228  10.124228   9.817077
    23  Ni  10.994317   9.817077  10.994317   9.817077  10.124228
    24  Ni  10.994317  10.994317   9.817077   9.817077  10.712143
    25  Ni   9.500000  10.712143  10.712143  11.800424   9.817077
    26  Ni  10.712143   9.500000  11.800424  10.712143   9.817077
    27  Ni  10.712143  11.800424   9.500000  10.712143  10.994317
    28  Ni  11.800424  10.712143  10.712143   9.500000  10.994317
                    6          7          8          9         10
     6  Ni   0.000000
     7  Ni   2.474874   0.000000
     8  Ni   4.949747   2.474874   0.000000
     9  Ni   3.500000   2.474874   3.500000   0.000000
    10  Ni   2.474874   2.474874   4.286607   4.286607   0.000000
    11  Ni   4.286607   2.474874   2.474874   4.286607   2.474874
    12  Ni   2.474874   2.474874   4.286607   2.474874   2.474874
    13  Ni   4.286607   2.474874   2.474874   2.474874   3.500000
    14  Ni   4.286607   3.500000   4.286607   4.286607   2.474874
    15  Ni   6.490377   6.000000   6.490377   6.490377   4.596194
    16  Ni   7.945124   7.945124   8.681878   8.681878   6.000000
    17  Ni   8.681878   7.945124   7.945124   8.681878   6.490377
    18  Ni   7.945124   7.945124   8.681878   7.945124   6.490377
    19  Ni   8.681878   7.945124   7.945124   7.945124   6.946222
    20  Ni  10.124228   9.817077  10.124228  10.712143   7.945124
    21  Ni   9.500000   9.817077  10.712143  10.124228   7.945124
    22  Ni   9.817077   9.500000   9.817077   9.817077   7.945124
    23  Ni  10.712143   9.817077   9.500000  10.124228   8.681878
    24  Ni  10.124228   9.817077  10.124228   9.500000   8.681878
    25  Ni   9.817077  10.124228  10.994317  10.994317   7.945124
    26  Ni  10.994317  10.124228   9.817077  10.994317   8.681878
    27  Ni   9.817077  10.124228  10.994317   9.817077   8.681878
    28  Ni  10.994317  10.124228   9.817077   9.817077   9.360823
                   11         12         13         14         15
    11  Ni   0.000000
    12  Ni   3.500000   0.000000
    13  Ni   2.474874   2.474874   0.000000
    14  Ni   2.474874   2.474874   2.474874   0.000000
    15  Ni   4.596194   4.596194   4.596194   2.500000   0.000000
    16  Ni   6.490377   6.490377   6.946222   4.596194   2.474874
    17  Ni   6.000000   6.946222   6.490377   4.596194   2.474874
    18  Ni   6.946222   6.000000   6.490377   4.596194   2.474874
    19  Ni   6.490377   6.490377   6.000000   4.596194   2.474874
    20  Ni   7.945124   8.681878   8.681878   6.490377   4.286607
    21  Ni   8.681878   7.945124   8.681878   6.490377   4.286607
    22  Ni   7.945124   7.945124   7.945124   6.000000   3.500000
    23  Ni   7.945124   8.681878   7.945124   6.490377   4.286607
    24  Ni   8.681878   7.945124   7.945124   6.490377   4.286607
    25  Ni   8.681878   8.681878   9.360823   6.946222   4.949747
    26  Ni   7.945124   9.360823   8.681878   6.946222   4.949747
    27  Ni   9.360823   7.945124   8.681878   6.946222   4.949747
    28  Ni   8.681878   8.681878   7.945124   6.946222   4.949747
                   16         17         18         19         20
    16  Ni   0.000000
    17  Ni   2.474874   0.000000
    18  Ni   2.474874   3.500000   0.000000
    19  Ni   3.500000   2.474874   2.474874   0.000000
    20  Ni   2.474874   2.474874   4.286607   4.286607   0.000000
    21  Ni   2.474874   4.286607   2.474874   4.286607   3.500000
    22  Ni   2.474874   2.474874   2.474874   2.474874   2.474874
    23  Ni   4.286607   2.474874   4.286607   2.474874   3.500000
    24  Ni   4.286607   4.286607   2.474874   2.474874   4.949747
    25  Ni   2.474874   4.286607   4.286607   5.533986   2.474874
    26  Ni   4.286607   2.474874   5.533986   4.286607   2.474874
    27  Ni   4.286607   5.533986   2.474874   4.286607   5.533986
    28  Ni   5.533986   4.286607   4.286607   2.474874   5.533986
                   21         22         23         24         25
    21  Ni   0.000000
    22  Ni   2.474874   0.000000
    23  Ni   4.949747   2.474874   0.000000
    24  Ni   3.500000   2.474874   3.500000   0.000000
    25  Ni   2.474874   3.500000   5.533986   5.533986   0.000000
    26  Ni   5.533986   3.500000   2.474874   5.533986   4.949747
    27  Ni   2.474874   3.500000   5.533986   2.474874   4.949747
    28  Ni   5.533986   3.500000   2.474874   2.474874   7.000000
                   26         27         28
    26  Ni   0.000000
    27  Ni   7.000000   0.000000
    28  Ni   4.949747   4.949747   0.000000
 Symmetry turned off by external request.
 Stoichiometry    Ni28(31)
 Framework group  D4H[C4(NiNi.NiNi),2SGV(Ni8),2SGD(Ni4)]
 Deg. of freedom     8
 Full point group                 D4H     NOp  16
 Rotational constants (GHZ):      0.0508639      0.0153848      0.0153848
 Leave Link  202 at Sat Jul  9 14:35:45 2022, MaxMem=   131072000 cpu:         0.2
 (Enter /home/palacios/Gaussian09/intel/v.D01/g09/l301.exe)
 General basis read from cards:  (5D, 7F)
 Centers:       1      2      3      4      5      6      7      8      9     10
 Centers:      11     12     13     14     15     16     17     18     19     20
 Centers:      21     22     23     24     25     26     27     28
 S 4 1.0
     Exponent=  2.3620000000D+00 Coefficients=  1.0376000000D-02
     Exponent=  8.0790000000D-01 Coefficients= -2.3838400000D-01
     Exponent=  1.2750000000D-01 Coefficients=  6.6522900000D-01
     Exponent=  4.3980000000D-02 Coefficients=  4.7746100000D-01
 P 3 1.00
     Exponent=  6.3093283800D-01 Coefficients= -1.2154686000D-01
     Exponent=  2.3285389800D-01 Coefficients=  5.7152276000D-01
     Exponent=  1.0283073600D-01 Coefficients=  5.4989494700D-01
 D 5 1.0
     Exponent=  2.8730000000D+01 Coefficients=  6.5209000000D-02
     Exponent=  7.7260000000D+00 Coefficients=  2.8056500000D-01
     Exponent=  2.4960000000D+00 Coefficients=  4.4350200000D-01
     Exponent=  9.1660000000D-01 Coefficients=  3.5962700000D-01
     Exponent=  3.1050000000D-01 Coefficients=  2.0531300000D-01
 ****
 ======================================================================================================
                                       Pseudopotential Parameters
 ======================================================================================================
  Center     Atomic      Valence      Angular      Power
  Number     Number     Electrons     Momentum     of R      Exponent        Coefficient   SO-Coeffient
 ======================================================================================================
    1         28           10
                                      D and up 
                                                     2        0.6047000       -0.39820800    0.00000000
                                                     2        1.9370000       -3.11549500    0.00000000
                                                     2        5.4946000      -11.88599500    0.00000000
                                                     2       18.0895000      -32.50999500    0.00000000
                                                     1       53.1894000      -11.93502800    0.00000000
                                      S - D
                                                     2        0.9379000       43.79937700    0.00000000
                                                     2        1.0665000     -122.48827800    0.00000000
                                                     2        1.3201000      170.38290700    0.00000000
                                                     2        1.6045000      -88.12361600    0.00000000
                                                     1        2.2698000        8.00157500    0.00000000
                                                     0        1.7094000        3.67468300    0.00000000
                                      P - D
                                                     2        0.2653000        0.02744700    0.00000000
                                                     2        1.5092000       94.02155300    0.00000000
                                                     2        1.8128000     -187.11548900    0.00000000
                                                     2        2.2120000      122.75196500    0.00000000
                                                     1        5.4856000       12.05337400    0.00000000
                                                     0        7.5189000        5.36371300    0.00000000
    2         28           10
                                      D and up 
                                                     2        0.6047000       -0.39820800    0.00000000
                                                     2        1.9370000       -3.11549500    0.00000000
                                                     2        5.4946000      -11.88599500    0.00000000
                                                     2       18.0895000      -32.50999500    0.00000000
                                                     1       53.1894000      -11.93502800    0.00000000
                                      S - D
                                                     2        0.9379000       43.79937700    0.00000000
                                                     2        1.0665000     -122.48827800    0.00000000
                                                     2        1.3201000      170.38290700    0.00000000
                                                     2        1.6045000      -88.12361600    0.00000000
                                                     1        2.2698000        8.00157500    0.00000000
                                                     0        1.7094000        3.67468300    0.00000000
                                      P - D
                                                     2        0.2653000        0.02744700    0.00000000
                                                     2        1.5092000       94.02155300    0.00000000
                                                     2        1.8128000     -187.11548900    0.00000000
                                                     2        2.2120000      122.75196500    0.00000000
                                                     1        5.4856000       12.05337400    0.00000000
                                                     0        7.5189000        5.36371300    0.00000000
    3         28           10
                                      D and up 
                                                     2        0.6047000       -0.39820800    0.00000000
                                                     2        1.9370000       -3.11549500    0.00000000
                                                     2        5.4946000      -11.88599500    0.00000000
                                                     2       18.0895000      -32.50999500    0.00000000
                                                     1       53.1894000      -11.93502800    0.00000000
                                      S - D
                                                     2        0.9379000       43.79937700    0.00000000
                                                     2        1.0665000     -122.48827800    0.00000000
                                                     2        1.3201000      170.38290700    0.00000000
                                                     2        1.6045000      -88.12361600    0.00000000
                                                     1        2.2698000        8.00157500    0.00000000
                                                     0        1.7094000        3.67468300    0.00000000
                                      P - D
                                                     2        0.2653000        0.02744700    0.00000000
                                                     2        1.5092000       94.02155300    0.00000000
                                                     2        1.8128000     -187.11548900    0.00000000
                                                     2        2.2120000      122.75196500    0.00000000
                                                     1        5.4856000       12.05337400    0.00000000
                                                     0        7.5189000        5.36371300    0.00000000
    4         28           10
                                      D and up 
                                                     2        0.6047000       -0.39820800    0.00000000
                                                     2        1.9370000       -3.11549500    0.00000000
                                                     2        5.4946000      -11.88599500    0.00000000
                                                     2       18.0895000      -32.50999500    0.00000000
                                                     1       53.1894000      -11.93502800    0.00000000
                                      S - D
                                                     2        0.9379000       43.79937700    0.00000000
                                                     2        1.0665000     -122.48827800    0.00000000
                                                     2        1.3201000      170.38290700    0.00000000
                                                     2        1.6045000      -88.12361600    0.00000000
                                                     1        2.2698000        8.00157500    0.00000000
                                                     0        1.7094000        3.67468300    0.00000000
                                      P - D
                                                     2        0.2653000        0.02744700    0.00000000
                                                     2        1.5092000       94.02155300    0.00000000
                                                     2        1.8128000     -187.11548900    0.00000000
                                                     2        2.2120000      122.75196500    0.00000000
                                                     1        5.4856000       12.05337400    0.00000000
                                                     0        7.5189000        5.36371300    0.00000000
    5         28           10
                                      D and up 
                                                     2        0.6047000       -0.39820800    0.00000000
                                                     2        1.9370000       -3.11549500    0.00000000
                                                     2        5.4946000      -11.88599500    0.00000000
                                                     2       18.0895000      -32.50999500    0.00000000
                                                     1       53.1894000      -11.93502800    0.00000000
                                      S - D
                                                     2        0.9379000       43.79937700    0.00000000
                                                     2        1.0665000     -122.48827800    0.00000000
                                                     2        1.3201000      170.38290700    0.00000000
                                                     2        1.6045000      -88.12361600    0.00000000
                                                     1        2.2698000        8.00157500    0.00000000
                                                     0        1.7094000        3.67468300    0.00000000
                                      P - D
                                                     2        0.2653000        0.02744700    0.00000000
                                                     2        1.5092000       94.02155300    0.00000000
                                                     2        1.8128000     -187.11548900    0.00000000
                                                     2        2.2120000      122.75196500    0.00000000
                                                     1        5.4856000       12.05337400    0.00000000
                                                     0        7.5189000        5.36371300    0.00000000
    6         28           10
                                      D and up 
                                                     2        0.6047000       -0.39820800    0.00000000
                                                     2        1.9370000       -3.11549500    0.00000000
                                                     2        5.4946000      -11.88599500    0.00000000
                                                     2       18.0895000      -32.50999500    0.00000000
                                                     1       53.1894000      -11.93502800    0.00000000
                                      S - D
                                                     2        0.9379000       43.79937700    0.00000000
                                                     2        1.0665000     -122.48827800    0.00000000
                                                     2        1.3201000      170.38290700    0.00000000
                                                     2        1.6045000      -88.12361600    0.00000000
                                                     1        2.2698000        8.00157500    0.00000000
                                                     0        1.7094000        3.67468300    0.00000000
                                      P - D
                                                     2        0.2653000        0.02744700    0.00000000
                                                     2        1.5092000       94.02155300    0.00000000
                                                     2        1.8128000     -187.11548900    0.00000000
                                                     2        2.2120000      122.75196500    0.00000000
                                                     1        5.4856000       12.05337400    0.00000000
                                                     0        7.5189000        5.36371300    0.00000000
    7         28           10
                                      D and up 
                                                     2        0.6047000       -0.39820800    0.00000000
                                                     2        1.9370000       -3.11549500    0.00000000
                                                     2        5.4946000      -11.88599500    0.00000000
                                                     2       18.0895000      -32.50999500    0.00000000
                                                     1       53.1894000      -11.93502800    0.00000000
                                      S - D
                                                     2        0.9379000       43.79937700    0.00000000
                                                     2        1.0665000     -122.48827800    0.00000000
                                                     2        1.3201000      170.38290700    0.00000000
                                                     2        1.6045000      -88.12361600    0.00000000
                                                     1        2.2698000        8.00157500    0.00000000
                                                     0        1.7094000        3.67468300    0.00000000
                                      P - D
                                                     2        0.2653000        0.02744700    0.00000000
                                                     2        1.5092000       94.02155300    0.00000000
                                                     2        1.8128000     -187.11548900    0.00000000
                                                     2        2.2120000      122.75196500    0.00000000
                                                     1        5.4856000       12.05337400    0.00000000
                                                     0        7.5189000        5.36371300    0.00000000
    8         28           10
                                      D and up 
                                                     2        0.6047000       -0.39820800    0.00000000
                                                     2        1.9370000       -3.11549500    0.00000000
                                                     2        5.4946000      -11.88599500    0.00000000
                                                     2       18.0895000      -32.50999500    0.00000000
                                                     1       53.1894000      -11.93502800    0.00000000
                                      S - D
                                                     2        0.9379000       43.79937700    0.00000000
                                                     2        1.0665000     -122.48827800    0.00000000
                                                     2        1.3201000      170.38290700    0.00000000
                                                     2        1.6045000      -88.12361600    0.00000000
                                                     1        2.2698000        8.00157500    0.00000000
                                                     0        1.7094000        3.67468300    0.00000000
                                      P - D
                                                     2        0.2653000        0.02744700    0.00000000
                                                     2        1.5092000       94.02155300    0.00000000
                                                     2        1.8128000     -187.11548900    0.00000000
                                                     2        2.2120000      122.75196500    0.00000000
                                                     1        5.4856000       12.05337400    0.00000000
                                                     0        7.5189000        5.36371300    0.00000000
    9         28           10
                                      D and up 
                                                     2        0.6047000       -0.39820800    0.00000000
                                                     2        1.9370000       -3.11549500    0.00000000
                                                     2        5.4946000      -11.88599500    0.00000000
                                                     2       18.0895000      -32.50999500    0.00000000
                                                     1       53.1894000      -11.93502800    0.00000000
                                      S - D
                                                     2        0.9379000       43.79937700    0.00000000
                                                     2        1.0665000     -122.48827800    0.00000000
                                                     2        1.3201000      170.38290700    0.00000000
                                                     2        1.6045000      -88.12361600    0.00000000
                                                     1        2.2698000        8.00157500    0.00000000
                                                     0        1.7094000        3.67468300    0.00000000
                                      P - D
                                                     2        0.2653000        0.02744700    0.00000000
                                                     2        1.5092000       94.02155300    0.00000000
                                                     2        1.8128000     -187.11548900    0.00000000
                                                     2        2.2120000      122.75196500    0.00000000
                                                     1        5.4856000       12.05337400    0.00000000
                                                     0        7.5189000        5.36371300    0.00000000
   10         28           10
                                      D and up 
                                                     2        0.6047000       -0.39820800    0.00000000
                                                     2        1.9370000       -3.11549500    0.00000000
                                                     2        5.4946000      -11.88599500    0.00000000
                                                     2       18.0895000      -32.50999500    0.00000000
                                                     1       53.1894000      -11.93502800    0.00000000
                                      S - D
                                                     2        0.9379000       43.79937700    0.00000000
                                                     2        1.0665000     -122.48827800    0.00000000
                                                     2        1.3201000      170.38290700    0.00000000
                                                     2        1.6045000      -88.12361600    0.00000000
                                                     1        2.2698000        8.00157500    0.00000000
                                                     0        1.7094000        3.67468300    0.00000000
                                      P - D
                                                     2        0.2653000        0.02744700    0.00000000
                                                     2        1.5092000       94.02155300    0.00000000
                                                     2        1.8128000     -187.11548900    0.00000000
                                                     2        2.2120000      122.75196500    0.00000000
                                                     1        5.4856000       12.05337400    0.00000000
                                                     0        7.5189000        5.36371300    0.00000000
   11         28           10
                                      D and up 
                                                     2        0.6047000       -0.39820800    0.00000000
                                                     2        1.9370000       -3.11549500    0.00000000
                                                     2        5.4946000      -11.88599500    0.00000000
                                                     2       18.0895000      -32.50999500    0.00000000
                                                     1       53.1894000      -11.93502800    0.00000000
                                      S - D
                                                     2        0.9379000       43.79937700    0.00000000
                                                     2        1.0665000     -122.48827800    0.00000000
                                                     2        1.3201000      170.38290700    0.00000000
                                                     2        1.6045000      -88.12361600    0.00000000
                                                     1        2.2698000        8.00157500    0.00000000
                                                     0        1.7094000        3.67468300    0.00000000
                                      P - D
                                                     2        0.2653000        0.02744700    0.00000000
                                                     2        1.5092000       94.02155300    0.00000000
                                                     2        1.8128000     -187.11548900    0.00000000
                                                     2        2.2120000      122.75196500    0.00000000
                                                     1        5.4856000       12.05337400    0.00000000
                                                     0        7.5189000        5.36371300    0.00000000
   12         28           10
                                      D and up 
                                                     2        0.6047000       -0.39820800    0.00000000
                                                     2        1.9370000       -3.11549500    0.00000000
                                                     2        5.4946000      -11.88599500    0.00000000
                                                     2       18.0895000      -32.50999500    0.00000000
                                                     1       53.1894000      -11.93502800    0.00000000
                                      S - D
                                                     2        0.9379000       43.79937700    0.00000000
                                                     2        1.0665000     -122.48827800    0.00000000
                                                     2        1.3201000      170.38290700    0.00000000
                                                     2        1.6045000      -88.12361600    0.00000000
                                                     1        2.2698000        8.00157500    0.00000000
                                                     0        1.7094000        3.67468300    0.00000000
                                      P - D
                                                     2        0.2653000        0.02744700    0.00000000
                                                     2        1.5092000       94.02155300    0.00000000
                                                     2        1.8128000     -187.11548900    0.00000000
                                                     2        2.2120000      122.75196500    0.00000000
                                                     1        5.4856000       12.05337400    0.00000000
                                                     0        7.5189000        5.36371300    0.00000000
   13         28           10
                                      D and up 
                                                     2        0.6047000       -0.39820800    0.00000000
                                                     2        1.9370000       -3.11549500    0.00000000
                                                     2        5.4946000      -11.88599500    0.00000000
                                                     2       18.0895000      -32.50999500    0.00000000
                                                     1       53.1894000      -11.93502800    0.00000000
                                      S - D
                                                     2        0.9379000       43.79937700    0.00000000
                                                     2        1.0665000     -122.48827800    0.00000000
                                                     2        1.3201000      170.38290700    0.00000000
                                                     2        1.6045000      -88.12361600    0.00000000
                                                     1        2.2698000        8.00157500    0.00000000
                                                     0        1.7094000        3.67468300    0.00000000
                                      P - D
                                                     2        0.2653000        0.02744700    0.00000000
                                                     2        1.5092000       94.02155300    0.00000000
                                                     2        1.8128000     -187.11548900    0.00000000
                                                     2        2.2120000      122.75196500    0.00000000
                                                     1        5.4856000       12.05337400    0.00000000
                                                     0        7.5189000        5.36371300    0.00000000
   14         28           10
                                      D and up 
                                                     2        0.6047000       -0.39820800    0.00000000
                                                     2        1.9370000       -3.11549500    0.00000000
                                                     2        5.4946000      -11.88599500    0.00000000
                                                     2       18.0895000      -32.50999500    0.00000000
                                                     1       53.1894000      -11.93502800    0.00000000
                                      S - D
                                                     2        0.9379000       43.79937700    0.00000000
                                                     2        1.0665000     -122.48827800    0.00000000
                                                     2        1.3201000      170.38290700    0.00000000
                                                     2        1.6045000      -88.12361600    0.00000000
                                                     1        2.2698000        8.00157500    0.00000000
                                                     0        1.7094000        3.67468300    0.00000000
                                      P - D
                                                     2        0.2653000        0.02744700    0.00000000
                                                     2        1.5092000       94.02155300    0.00000000
                                                     2        1.8128000     -187.11548900    0.00000000
                                                     2        2.2120000      122.75196500    0.00000000
                                                     1        5.4856000       12.05337400    0.00000000
                                                     0        7.5189000        5.36371300    0.00000000
   15         28           10
                                      D and up 
                                                     2        0.6047000       -0.39820800    0.00000000
                                                     2        1.9370000       -3.11549500    0.00000000
                                                     2        5.4946000      -11.88599500    0.00000000
                                                     2       18.0895000      -32.50999500    0.00000000
                                                     1       53.1894000      -11.93502800    0.00000000
                                      S - D
                                                     2        0.9379000       43.79937700    0.00000000
                                                     2        1.0665000     -122.48827800    0.00000000
                                                     2        1.3201000      170.38290700    0.00000000
                                                     2        1.6045000      -88.12361600    0.00000000
                                                     1        2.2698000        8.00157500    0.00000000
                                                     0        1.7094000        3.67468300    0.00000000
                                      P - D
                                                     2        0.2653000        0.02744700    0.00000000
                                                     2        1.5092000       94.02155300    0.00000000
                                                     2        1.8128000     -187.11548900    0.00000000
                                                     2        2.2120000      122.75196500    0.00000000
                                                     1        5.4856000       12.05337400    0.00000000
                                                     0        7.5189000        5.36371300    0.00000000
   16         28           10
                                      D and up 
                                                     2        0.6047000       -0.39820800    0.00000000
                                                     2        1.9370000       -3.11549500    0.00000000
                                                     2        5.4946000      -11.88599500    0.00000000
                                                     2       18.0895000      -32.50999500    0.00000000
                                                     1       53.1894000      -11.93502800    0.00000000
                                      S - D
                                                     2        0.9379000       43.79937700    0.00000000
                                                     2        1.0665000     -122.48827800    0.00000000
                                                     2        1.3201000      170.38290700    0.00000000
                                                     2        1.6045000      -88.12361600    0.00000000
                                                     1        2.2698000        8.00157500    0.00000000
                                                     0        1.7094000        3.67468300    0.00000000
                                      P - D
                                                     2        0.2653000        0.02744700    0.00000000
                                                     2        1.5092000       94.02155300    0.00000000
                                                     2        1.8128000     -187.11548900    0.00000000
                                                     2        2.2120000      122.75196500    0.00000000
                                                     1        5.4856000       12.05337400    0.00000000
                                                     0        7.5189000        5.36371300    0.00000000
   17         28           10
                                      D and up 
                                                     2        0.6047000       -0.39820800    0.00000000
                                                     2        1.9370000       -3.11549500    0.00000000
                                                     2        5.4946000      -11.88599500    0.00000000
                                                     2       18.0895000      -32.50999500    0.00000000
                                                     1       53.1894000      -11.93502800    0.00000000
                                      S - D
                                                     2        0.9379000       43.79937700    0.00000000
                                                     2        1.0665000     -122.48827800    0.00000000
                                                     2        1.3201000      170.38290700    0.00000000
                                                     2        1.6045000      -88.12361600    0.00000000
                                                     1        2.2698000        8.00157500    0.00000000
                                                     0        1.7094000        3.67468300    0.00000000
                                      P - D
                                                     2        0.2653000        0.02744700    0.00000000
                                                     2        1.5092000       94.02155300    0.00000000
                                                     2        1.8128000     -187.11548900    0.00000000
                                                     2        2.2120000      122.75196500    0.00000000
                                                     1        5.4856000       12.05337400    0.00000000
                                                     0        7.5189000        5.36371300    0.00000000
   18         28           10
                                      D and up 
                                                     2        0.6047000       -0.39820800    0.00000000
                                                     2        1.9370000       -3.11549500    0.00000000
                                                     2        5.4946000      -11.88599500    0.00000000
                                                     2       18.0895000      -32.50999500    0.00000000
                                                     1       53.1894000      -11.93502800    0.00000000
                                      S - D
                                                     2        0.9379000       43.79937700    0.00000000
                                                     2        1.0665000     -122.48827800    0.00000000
                                                     2        1.3201000      170.38290700    0.00000000
                                                     2        1.6045000      -88.12361600    0.00000000
                                                     1        2.2698000        8.00157500    0.00000000
                                                     0        1.7094000        3.67468300    0.00000000
                                      P - D
                                                     2        0.2653000        0.02744700    0.00000000
                                                     2        1.5092000       94.02155300    0.00000000
                                                     2        1.8128000     -187.11548900    0.00000000
                                                     2        2.2120000      122.75196500    0.00000000
                                                     1        5.4856000       12.05337400    0.00000000
                                                     0        7.5189000        5.36371300    0.00000000
   19         28           10
                                      D and up 
                                                     2        0.6047000       -0.39820800    0.00000000
                                                     2        1.9370000       -3.11549500    0.00000000
                                                     2        5.4946000      -11.88599500    0.00000000
                                                     2       18.0895000      -32.50999500    0.00000000
                                                     1       53.1894000      -11.93502800    0.00000000
                                      S - D
                                                     2        0.9379000       43.79937700    0.00000000
                                                     2        1.0665000     -122.48827800    0.00000000
                                                     2        1.3201000      170.38290700    0.00000000
                                                     2        1.6045000      -88.12361600    0.00000000
                                                     1        2.2698000        8.00157500    0.00000000
                                                     0        1.7094000        3.67468300    0.00000000
                                      P - D
                                                     2        0.2653000        0.02744700    0.00000000
                                                     2        1.5092000       94.02155300    0.00000000
                                                     2        1.8128000     -187.11548900    0.00000000
                                                     2        2.2120000      122.75196500    0.00000000
                                                     1        5.4856000       12.05337400    0.00000000
                                                     0        7.5189000        5.36371300    0.00000000
   20         28           10
                                      D and up 
                                                     2        0.6047000       -0.39820800    0.00000000
                                                     2        1.9370000       -3.11549500    0.00000000
                                                     2        5.4946000      -11.88599500    0.00000000
                                                     2       18.0895000      -32.50999500    0.00000000
                                                     1       53.1894000      -11.93502800    0.00000000
                                      S - D
                                                     2        0.9379000       43.79937700    0.00000000
                                                     2        1.0665000     -122.48827800    0.00000000
                                                     2        1.3201000      170.38290700    0.00000000
                                                     2        1.6045000      -88.12361600    0.00000000
                                                     1        2.2698000        8.00157500    0.00000000
                                                     0        1.7094000        3.67468300    0.00000000
                                      P - D
                                                     2        0.2653000        0.02744700    0.00000000
                                                     2        1.5092000       94.02155300    0.00000000
                                                     2        1.8128000     -187.11548900    0.00000000
                                                     2        2.2120000      122.75196500    0.00000000
                                                     1        5.4856000       12.05337400    0.00000000
                                                     0        7.5189000        5.36371300    0.00000000
   21         28           10
                                      D and up 
                                                     2        0.6047000       -0.39820800    0.00000000
                                                     2        1.9370000       -3.11549500    0.00000000
                                                     2        5.4946000      -11.88599500    0.00000000
                                                     2       18.0895000      -32.50999500    0.00000000
                                                     1       53.1894000      -11.93502800    0.00000000
                                      S - D
                                                     2        0.9379000       43.79937700    0.00000000
                                                     2        1.0665000     -122.48827800    0.00000000
                                                     2        1.3201000      170.38290700    0.00000000
                                                     2        1.6045000      -88.12361600    0.00000000
                                                     1        2.2698000        8.00157500    0.00000000
                                                     0        1.7094000        3.67468300    0.00000000
                                      P - D
                                                     2        0.2653000        0.02744700    0.00000000
                                                     2        1.5092000       94.02155300    0.00000000
                                                     2        1.8128000     -187.11548900    0.00000000
                                                     2        2.2120000      122.75196500    0.00000000
                                                     1        5.4856000       12.05337400    0.00000000
                                                     0        7.5189000        5.36371300    0.00000000
   22         28           10
                                      D and up 
                                                     2        0.6047000       -0.39820800    0.00000000
                                                     2        1.9370000       -3.11549500    0.00000000
                                                     2        5.4946000      -11.88599500    0.00000000
                                                     2       18.0895000      -32.50999500    0.00000000
                                                     1       53.1894000      -11.93502800    0.00000000
                                      S - D
                                                     2        0.9379000       43.79937700    0.00000000
                                                     2        1.0665000     -122.48827800    0.00000000
                                                     2        1.3201000      170.38290700    0.00000000
                                                     2        1.6045000      -88.12361600    0.00000000
                                                     1        2.2698000        8.00157500    0.00000000
                                                     0        1.7094000        3.67468300    0.00000000
                                      P - D
                                                     2        0.2653000        0.02744700    0.00000000
                                                     2        1.5092000       94.02155300    0.00000000
                                                     2        1.8128000     -187.11548900    0.00000000
                                                     2        2.2120000      122.75196500    0.00000000
                                                     1        5.4856000       12.05337400    0.00000000
                                                     0        7.5189000        5.36371300    0.00000000
   23         28           10
                                      D and up 
                                                     2        0.6047000       -0.39820800    0.00000000
                                                     2        1.9370000       -3.11549500    0.00000000
                                                     2        5.4946000      -11.88599500    0.00000000
                                                     2       18.0895000      -32.50999500    0.00000000
                                                     1       53.1894000      -11.93502800    0.00000000
                                      S - D
                                                     2        0.9379000       43.79937700    0.00000000
                                                     2        1.0665000     -122.48827800    0.00000000
                                                     2        1.3201000      170.38290700    0.00000000
                                                     2        1.6045000      -88.12361600    0.00000000
                                                     1        2.2698000        8.00157500    0.00000000
                                                     0        1.7094000        3.67468300    0.00000000
                                      P - D
                                                     2        0.2653000        0.02744700    0.00000000
                                                     2        1.5092000       94.02155300    0.00000000
                                                     2        1.8128000     -187.11548900    0.00000000
                                                     2        2.2120000      122.75196500    0.00000000
                                                     1        5.4856000       12.05337400    0.00000000
                                                     0        7.5189000        5.36371300    0.00000000
   24         28           10
                                      D and up 
                                                     2        0.6047000       -0.39820800    0.00000000
                                                     2        1.9370000       -3.11549500    0.00000000
                                                     2        5.4946000      -11.88599500    0.00000000
                                                     2       18.0895000      -32.50999500    0.00000000
                                                     1       53.1894000      -11.93502800    0.00000000
                                      S - D
                                                     2        0.9379000       43.79937700    0.00000000
                                                     2        1.0665000     -122.48827800    0.00000000
                                                     2        1.3201000      170.38290700    0.00000000
                                                     2        1.6045000      -88.12361600    0.00000000
                                                     1        2.2698000        8.00157500    0.00000000
                                                     0        1.7094000        3.67468300    0.00000000
                                      P - D
                                                     2        0.2653000        0.02744700    0.00000000
                                                     2        1.5092000       94.02155300    0.00000000
                                                     2        1.8128000     -187.11548900    0.00000000
                                                     2        2.2120000      122.75196500    0.00000000
                                                     1        5.4856000       12.05337400    0.00000000
                                                     0        7.5189000        5.36371300    0.00000000
   25         28           10
                                      D and up 
                                                     2        0.6047000       -0.39820800    0.00000000
                                                     2        1.9370000       -3.11549500    0.00000000
                                                     2        5.4946000      -11.88599500    0.00000000
                                                     2       18.0895000      -32.50999500    0.00000000
                                                     1       53.1894000      -11.93502800    0.00000000
                                      S - D
                                                     2        0.9379000       43.79937700    0.00000000
                                                     2        1.0665000     -122.48827800    0.00000000
                                                     2        1.3201000      170.38290700    0.00000000
                                                     2        1.6045000      -88.12361600    0.00000000
                                                     1        2.2698000        8.00157500    0.00000000
                                                     0        1.7094000        3.67468300    0.00000000
                                      P - D
                                                     2        0.2653000        0.02744700    0.00000000
                                                     2        1.5092000       94.02155300    0.00000000
                                                     2        1.8128000     -187.11548900    0.00000000
                                                     2        2.2120000      122.75196500    0.00000000
                                                     1        5.4856000       12.05337400    0.00000000
                                                     0        7.5189000        5.36371300    0.00000000
   26         28           10
                                      D and up 
                                                     2        0.6047000       -0.39820800    0.00000000
                                                     2        1.9370000       -3.11549500    0.00000000
                                                     2        5.4946000      -11.88599500    0.00000000
                                                     2       18.0895000      -32.50999500    0.00000000
                                                     1       53.1894000      -11.93502800    0.00000000
                                      S - D
                                                     2        0.9379000       43.79937700    0.00000000
                                                     2        1.0665000     -122.48827800    0.00000000
                                                     2        1.3201000      170.38290700    0.00000000
                                                     2        1.6045000      -88.12361600    0.00000000
                                                     1        2.2698000        8.00157500    0.00000000
                                                     0        1.7094000        3.67468300    0.00000000
                                      P - D
                                                     2        0.2653000        0.02744700    0.00000000
                                                     2        1.5092000       94.02155300    0.00000000
                                                     2        1.8128000     -187.11548900    0.00000000
                                                     2        2.2120000      122.75196500    0.00000000
                                                     1        5.4856000       12.05337400    0.00000000
                                                     0        7.5189000        5.36371300    0.00000000
   27         28           10
                                      D and up 
                                                     2        0.6047000       -0.39820800    0.00000000
                                                     2        1.9370000       -3.11549500    0.00000000
                                                     2        5.4946000      -11.88599500    0.00000000
                                                     2       18.0895000      -32.50999500    0.00000000
                                                     1       53.1894000      -11.93502800    0.00000000
                                      S - D
                                                     2        0.9379000       43.79937700    0.00000000
                                                     2        1.0665000     -122.48827800    0.00000000
                                                     2        1.3201000      170.38290700    0.00000000
                                                     2        1.6045000      -88.12361600    0.00000000
                                                     1        2.2698000        8.00157500    0.00000000
                                                     0        1.7094000        3.67468300    0.00000000
                                      P - D
                                                     2        0.2653000        0.02744700    0.00000000
                                                     2        1.5092000       94.02155300    0.00000000
                                                     2        1.8128000     -187.11548900    0.00000000
                                                     2        2.2120000      122.75196500    0.00000000
                                                     1        5.4856000       12.05337400    0.00000000
                                                     0        7.5189000        5.36371300    0.00000000
   28         28           10
                                      D and up 
                                                     2        0.6047000       -0.39820800    0.00000000
                                                     2        1.9370000       -3.11549500    0.00000000
                                                     2        5.4946000      -11.88599500    0.00000000
                                                     2       18.0895000      -32.50999500    0.00000000
                                                     1       53.1894000      -11.93502800    0.00000000
                                      S - D
                                                     2        0.9379000       43.79937700    0.00000000
                                                     2        1.0665000     -122.48827800    0.00000000
                                                     2        1.3201000      170.38290700    0.00000000
                                                     2        1.6045000      -88.12361600    0.00000000
                                                     1        2.2698000        8.00157500    0.00000000
                                                     0        1.7094000        3.67468300    0.00000000
                                      P - D
                                                     2        0.2653000        0.02744700    0.00000000
                                                     2        1.5092000       94.02155300    0.00000000
                                                     2        1.8128000     -187.11548900    0.00000000
                                                     2        2.2120000      122.75196500    0.00000000
                                                     1        5.4856000       12.05337400    0.00000000
                                                     0        7.5189000        5.36371300    0.00000000
 ======================================================================================================
 Ernie: Thresh=  0.10000D-02 Tol=  0.10000D-05 Strict=F.
   252 basis functions,  1204 primitive gaussians,   280 cartesian basis functions
   155 alpha electrons      125 beta electrons
       nuclear repulsion energy      4098.3044041810 Hartrees.
 IExCor=  205 DFT=T Ex=S Corr=VWN ExCW=0 ScaHFX=  0.000000
 ScaDFX=  1.000000  1.000000  1.000000  1.000000 ScalE2=  1.000000  1.000000
 IRadAn=      0 IRanWt=     -1 IRanGd=            0 ICorTp=0 IEmpDi=  4
 NAtoms=   28 NActive=   28 NUniq=   28 SFac= 1.00D+00 NAtFMM=   60 NAOKFM=F Big=F
 Integral buffers will be    131072 words long.
 Raffenetti 2 integral format.
 Two-electron integral symmetry is turned off.
 Leave Link  301 at Sat Jul  9 14:35:49 2022, MaxMem=   131072000 cpu:         1.1
 (Enter /home/palacios/Gaussian09/intel/v.D01/g09/l302.exe)
 NPDir=0 NMtPBC=     1 NCelOv=     1 NCel=       1 NClECP=     1 NCelD=      1
         NCelK=      1 NCelE2=     1 NClLst=     1 CellRange=     0.0.
 One-electron integrals computed using PRISM.
   1 Symmetry operations used in ECPInt.
 ECPInt:  NShTT=    3570 NPrTT=   57148 LenC2=    3523 LenP2D=   41683.
 LDataN:  DoStor=T MaxTD1= 4 Len=   56
 GSVD:  received Info=                   1 from GESDD.
 NBasis=   252 RedAO= T EigKep=  4.96D-02  NBF=   252
 NBsUse=   252 1.00D-06 EigRej= -1.00D+00 NBFU=   252
 Precomputing XC quadrature grid using
 IXCGrd= 4 IRadAn=           0 IRanWt=          -1 IRanGd=           0 AccXCQ= 0.00D+00.
 Generated NRdTot=       0 NPtTot=           0 NUsed=           0 NTot=          32
 NSgBfM=   280   280   280   280   280 MxSgAt=    28 MxSgA2=    28.
 Leave Link  302 at Sat Jul  9 14:35:56 2022, MaxMem=   131072000 cpu:        62.5
 (Enter /home/palacios/Gaussian09/intel/v.D01/g09/l303.exe)
 DipDrv:  MaxL=1.
 Leave Link  303 at Sat Jul  9 14:35:59 2022, MaxMem=   131072000 cpu:         1.4
 (Enter /home/palacios/Gaussian09/intel/v.D01/g09/l401.exe)
 ExpMin= 4.40D-02 ExpMax= 2.87D+01 ExpMxC= 2.87D+01 IAcc=2 IRadAn=         4 AccDes= 0.00D+00
 Harris functional with IExCor=  205 and IRadAn=       4 diagonalized for initial guess.
 HarFok:  IExCor=  205 AccDes= 0.00D+00 IRadAn=         4 IDoV= 1 UseB2=F ITyADJ=14
 ICtDFT=  3500011 ScaDFX=  1.000000  1.000000  1.000000  1.000000
 FoFCou: FMM=F IPFlag=           0 FMFlag=      100000 FMFlg1=           0
         NFxFlg=           0 DoJE=T BraDBF=F KetDBF=T FulRan=T
         wScrn=  0.000000 ICntrl=     500 IOpCl=  0 I1Cent=   200000004 NGrid=           0
         NMat0=    1 NMatS0=      1 NMatT0=    0 NMatD0=    1 NMtDS0=    0 NMtDT0=    0
 Symmetry not used in FoFCou.
 Harris En= -1131.68074349719    
 JPrj=0 DoOrth=F DoCkMO=F.
 Initial guess <Sx>= 0.0000 <Sy>= 0.0000 <Sz>=15.0000 <S**2>=******* S=15.0000
 Leave Link  401 at Sat Jul  9 14:36:03 2022, MaxMem=   131072000 cpu:         7.0
 (Enter ../../bin/l502.exe)
 UHF open shell SCF:
 Using DIIS extrapolation, IDIIS=  1040.
 Two-electron integral symmetry not used.
 IVT=      334442 IEndB=      334442 NGot=   131072000 MDV=   130906839
 LenX=   130906839 LenY=   130827998
 Requested convergence on RMS density matrix=1.00D-05 within 300 cycles.
 Requested convergence on MAX density matrix=1.00D-03.
 Requested convergence on             energy=1.00D-03.
 No special actions if energy rises.
 Fock matrices will be formed incrementally for  20 cycles.

 Cycle   1  Pass 1  IDiag  1:
 
  ****************************************************************** 
  ***                                                            *** 
  ***                      A t o m i s t i c                     *** 
  ***                      N a n o                               *** 
  ***                      T r a n s p o r t                     *** 
  ***                      G 0 9                                 *** 
  ***                                                            *** 
  ****************************************************************** 
  ***                     Version: 2.7.0                         *** 
  ****************************************************************** 
  *  Copyright (c) by                                              * 
  *                                                                * 
  *  Juan Jose Palacios (1)                                        * 
  *  David Jacob (2)                                               * 
  *  Maria Soriano (1,5)                                           * 
  *  Angel J. Perez-Jimenez (3)                                    * 
  *  Emilio SanFabian (3)                                          * 
  *  Jose Antonio Antonio Verges (4)                               * 
  *  Enrique Louis (5)                                             * 
  *  Wynand Dednam (5)                                             * 
  *                                                                * 
  * (1) Departamento de Fisica de la Materia Condensada            * 
  *     Universidad Autonoma de Madrid                             * 
  *     28049 Madrid (SPAIN)                                       * 
  * (2) Theory Department                                          * 
  *     Max-Planck-Institute for Microstructure Physics            * 
  *     Halle, 06120 (GERMANY)                                     * 
  * (3) Departamento de Quimica Fisica                             * 
  *     Universidad de Alicante                                    * 
  *     03690 Alicante (SPAIN)                                     * 
  * (4) Insto. de Ciencias de Materiales de Madrid (ICMM)          * 
  *     Consejo Superior de Investigacion y Ciencia (CSIC)         * 
  *     28049 Madrid (SPAIN)                                       * 
  * (5) Departamento de Fisica Aplicada                            * 
  *     Universidad de Alicante                                    * 
  *     03690 Alicante (SPAIN)                                     * 
  *                                                                * 
  ****************************************************************** 
 
  ****************************************************************** 
  *                                                                * 
[...]
     2  Ni   0.000000   0.000001   0.000000   0.000000
     3  Ni   0.000000   0.000000   0.000001   0.000000
     4  Ni   0.000000   0.000000   0.000000   0.000001
     5  Ni   0.000000   0.000000   0.000000   0.000000
     6  Ni   0.000000   0.000000   0.000000   0.000000
     7  Ni   0.000000   0.000000   0.000000   0.000000
     8  Ni   0.000000   0.000000   0.000000   0.000000
     9  Ni   0.000000   0.000000   0.000000   0.000000
    10  Ni  -0.000007   0.000000   0.000000   0.000001
    11  Ni   0.000000  -0.000007   0.000001   0.000000
    12  Ni   0.000000   0.000001  -0.000007   0.000000
    13  Ni   0.000001   0.000000   0.000000  -0.000007
    14  Ni   0.000058   0.000058   0.000058   0.000058
    15  Ni  -0.000434  -0.000435  -0.000435  -0.000434
    16  Ni   0.002484  -0.000285  -0.000300  -0.000487
    17  Ni  -0.000285   0.002522  -0.000488  -0.000298
    18  Ni  -0.000298  -0.000488   0.002522  -0.000285
    19  Ni  -0.000487  -0.000300  -0.000285   0.002484
    20  Ni  -0.010422  -0.010413  -0.000028  -0.000028
    21  Ni  -0.010418  -0.000030  -0.010396  -0.000030
    22  Ni   0.002604   0.002604   0.002604   0.002604
    23  Ni  -0.000030  -0.010396  -0.000030  -0.010418
    24  Ni  -0.000028  -0.000028  -0.010413  -0.010422
    25  Ni   1.102392  -0.000865  -0.000873   0.000176
    26  Ni  -0.000865   1.100594   0.000176  -0.000873
    27  Ni  -0.000873   0.000176   1.100594  -0.000865
    28  Ni   0.000176  -0.000873  -0.000865   1.102391
 Mulliken charges and spin densities:
               1          2
     1  Ni  -0.199409   1.084079
     2  Ni  -0.199680   1.082476
     3  Ni  -0.199680   1.082476
     4  Ni  -0.199409   1.084079
     5  Ni  -0.108178   0.922795
     6  Ni  -0.107535   0.930727
     7  Ni  -0.001244   0.774960
     8  Ni  -0.107535   0.930727
     9  Ni  -0.108178   0.922795
    10  Ni   0.334521   0.766427
    11  Ni   0.334430   0.765087
    12  Ni   0.334430   0.765087
    13  Ni   0.334521   0.766427
    14  Ni  -0.101190   0.856818
    15  Ni  -0.101474   0.858005
    16  Ni   0.334030   0.766787
    17  Ni   0.333931   0.765426
    18  Ni   0.333931   0.765426
    19  Ni   0.334030   0.766787
    20  Ni  -0.108625   0.921643
    21  Ni  -0.107988   0.929905
    22  Ni  -0.001625   0.773511
    23  Ni  -0.107988   0.929905
    24  Ni  -0.108625   0.921643
    25  Ni  -0.199755   1.083567
    26  Ni  -0.200038   1.081835
    27  Ni  -0.200038   1.081835
    28  Ni  -0.199755   1.083567
 Sum of Mulliken charges =   0.00588  25.46480
 Mulliken charges and spin densities with hydrogens summed into heavy atoms:
               1          2
     1  Ni  -0.199409   1.084079
     2  Ni  -0.199680   1.082476
     3  Ni  -0.199680   1.082476
     4  Ni  -0.199409   1.084079
     5  Ni  -0.108178   0.922795
     6  Ni  -0.107535   0.930727
     7  Ni  -0.001244   0.774960
     8  Ni  -0.107535   0.930727
     9  Ni  -0.108178   0.922795
    10  Ni   0.334521   0.766427
    11  Ni   0.334430   0.765087
    12  Ni   0.334430   0.765087
    13  Ni   0.334521   0.766427
    14  Ni  -0.101190   0.856818
    15  Ni  -0.101474   0.858005
    16  Ni   0.334030   0.766787
    17  Ni   0.333931   0.765426
    18  Ni   0.333931   0.765426
    19  Ni   0.334030   0.766787
    20  Ni  -0.108625   0.921643
    21  Ni  -0.107988   0.929905
    22  Ni  -0.001625   0.773511
    23  Ni  -0.107988   0.929905
    24  Ni  -0.108625   0.921643
    25  Ni  -0.199755   1.083567
    26  Ni  -0.200038   1.081835
    27  Ni  -0.200038   1.081835
    28  Ni  -0.199755   1.083567
 Electronic spatial extent (au):  <R**2>=          23924.8925
 Charge=              0.0059 electrons
 Dipole moment (field-independent basis, Debye):
    X=              0.0000    Y=              0.0000    Z=             -0.1113  Tot=              0.1113
 Quadrupole moment (field-independent basis, Debye-Ang):
   XX=           -292.1109   YY=           -292.0475   ZZ=           -242.7238
   XY=             -0.0528   XZ=              0.0000   YZ=              0.0000
 Traceless Quadrupole moment (field-independent basis, Debye-Ang):
   XX=            -16.4835   YY=            -16.4201   ZZ=             32.9036
   XY=             -0.0528   XZ=              0.0000   YZ=              0.0000
 Octapole moment (field-independent basis, Debye-Ang**2):
  XXX=              0.0000  YYY=              0.0000  ZZZ=             -2.2968  XYY=              0.0000
  XXY=              0.0000  XXZ=             -0.3911  XZZ=              0.0000  YZZ=              0.0000
  YYZ=             -0.3865  XYZ=             -0.0014
 Hexadecapole moment (field-independent basis, Debye-Ang**3):
 XXXX=          -5903.1835 YYYY=          -5902.9088 ZZZZ=         -28008.4202 XXXY=             -0.0962
 XXXZ=              0.0000 YYYX=             -0.0927 YYYZ=              0.0000 ZZZX=              0.0000
 ZZZY=              0.0000 XXYY=          -2074.0007 XXZZ=          -5471.2669 YYZZ=          -5470.1093
 XXYZ=              0.0000 YYXZ=              0.0000 ZZXY=             -1.2984
 N-N= 4.098304404181D+03 E-N=-1.239696655604D+04  KE= 2.143309875971D+03
                          Isotropic Fermi Contact Couplings
        Atom                 a.u.       MegaHertz       Gauss      10(-4) cm-1
     1  Ni(61)             0.00002      -0.00022      -0.00008      -0.00007
     2  Ni(61)             0.00002      -0.00022      -0.00008      -0.00007
     3  Ni(61)             0.00002      -0.00022      -0.00008      -0.00007
     4  Ni(61)             0.00002      -0.00022      -0.00008      -0.00007
     5  Ni(61)             0.00000      -0.00004      -0.00002      -0.00001
     6  Ni(61)             0.00000      -0.00004      -0.00001      -0.00001
     7  Ni(61)             0.00000       0.00004       0.00001       0.00001
     8  Ni(61)             0.00000      -0.00004      -0.00001      -0.00001
     9  Ni(61)             0.00000      -0.00004      -0.00002      -0.00001
    10  Ni(61)            -0.00001       0.00013       0.00004       0.00004
    11  Ni(61)            -0.00001       0.00012       0.00004       0.00004
    12  Ni(61)            -0.00001       0.00012       0.00004       0.00004
    13  Ni(61)            -0.00001       0.00013       0.00004       0.00004
    14  Ni(61)            -0.00001       0.00008       0.00003       0.00003
    15  Ni(61)            -0.00001       0.00009       0.00003       0.00003
    16  Ni(61)            -0.00001       0.00013       0.00004       0.00004
    17  Ni(61)            -0.00001       0.00012       0.00004       0.00004
    18  Ni(61)            -0.00001       0.00012       0.00004       0.00004
    19  Ni(61)            -0.00001       0.00013       0.00004       0.00004
    20  Ni(61)             0.00000      -0.00005      -0.00002      -0.00002
    21  Ni(61)             0.00000      -0.00004      -0.00002      -0.00001
    22  Ni(61)             0.00000       0.00004       0.00001       0.00001
    23  Ni(61)             0.00000      -0.00004      -0.00002      -0.00001
    24  Ni(61)             0.00000      -0.00005      -0.00002      -0.00002
    25  Ni(61)             0.00002      -0.00022      -0.00008      -0.00007
    26  Ni(61)             0.00002      -0.00022      -0.00008      -0.00007
    27  Ni(61)             0.00002      -0.00022      -0.00008      -0.00007
    28  Ni(61)             0.00002      -0.00022      -0.00008      -0.00007
 --------------------------------------------------------
       Center         ----  Spin Dipole Couplings  ----
                      3XX-RR        3YY-RR        3ZZ-RR
 --------------------------------------------------------
     1   Atom        0.014347      0.151919     -0.166266
     2   Atom        0.151258      0.014359     -0.165617
     3   Atom        0.151258      0.014359     -0.165617
     4   Atom        0.014347      0.151919     -0.166266
     5   Atom        0.028185      0.028177     -0.056362
     6   Atom        0.029003      0.029514     -0.058518
     7   Atom        0.076446      0.077123     -0.153569
     8   Atom        0.029003      0.029514     -0.058518
     9   Atom        0.028185      0.028177     -0.056362
    10   Atom        0.019374      0.135253     -0.154628
    11   Atom        0.135150      0.019965     -0.155115
    12   Atom        0.135150      0.019965     -0.155115
    13   Atom        0.019374      0.135254     -0.154628
    14   Atom       -0.075754     -0.074846      0.150600
    15   Atom       -0.064345     -0.063591      0.127936
    16   Atom        0.024218      0.142363     -0.166581
    17   Atom        0.142439      0.024391     -0.166830
    18   Atom        0.142439      0.024391     -0.166830
    19   Atom        0.024218      0.142363     -0.166581
    20   Atom        0.028900      0.028903     -0.057803
    21   Atom        0.029696      0.030209     -0.059905
    22   Atom        0.077104      0.077838     -0.154942
    23   Atom        0.029696      0.030209     -0.059905
    24   Atom        0.028900      0.028903     -0.057803
    25   Atom        0.014390      0.151844     -0.166233
    26   Atom        0.151201      0.014407     -0.165608
    27   Atom        0.151201      0.014407     -0.165608
    28   Atom        0.014390      0.151844     -0.166233
 --------------------------------------------------------
                        XY            XZ            YZ
 --------------------------------------------------------
     1   Atom        0.003751     -0.001451      0.023507
     2   Atom        0.003258      0.022896     -0.001330
     3   Atom        0.003258     -0.022896      0.001330
     4   Atom        0.003751      0.001451     -0.023507
     5   Atom        0.091256      0.026556      0.026545
     6   Atom       -0.092776     -0.025639      0.025422
     7   Atom       -0.004378      0.000000      0.000000
     8   Atom       -0.092776      0.025639     -0.025422
     9   Atom        0.091256     -0.026556     -0.026545
    10   Atom       -0.008269     -0.022642      0.488399
    11   Atom       -0.008458      0.487865     -0.022446
    12   Atom       -0.008458     -0.487865      0.022446
    13   Atom       -0.008269      0.022642     -0.488399
    14   Atom        0.000750      0.000000      0.000000
    15   Atom        0.000492      0.000000      0.000000
    16   Atom       -0.007341      0.022335     -0.481505
    17   Atom       -0.007506     -0.480908      0.022254
    18   Atom       -0.007506      0.480908     -0.022254
    19   Atom       -0.007341     -0.022335      0.481505
    20   Atom        0.091716     -0.025301     -0.025275
    21   Atom       -0.093175      0.024343     -0.024113
    22   Atom       -0.004454      0.000000      0.000000
    23   Atom       -0.093175     -0.024343      0.024113
    24   Atom        0.091716      0.025301      0.025275
    25   Atom        0.003752      0.001466     -0.023495
    26   Atom        0.003242     -0.022770      0.001308
    27   Atom        0.003242      0.022770     -0.001308
    28   Atom        0.003752     -0.001466      0.023495
 --------------------------------------------------------


 ---------------------------------------------------------------------------------
              Anisotropic Spin Dipole Couplings in Principal Axis System
 ---------------------------------------------------------------------------------

       Atom             a.u.   MegaHertz   Gauss  10(-4) cm-1        Axes

              Baa    -0.1680     8.024     2.863     2.677  0.0094 -0.0734  0.9973
     1 Ni(61) Bbb     0.0143    -0.681    -0.243    -0.227  0.9996 -0.0253 -0.0113
              Bcc     0.1537    -7.343    -2.620    -2.449  0.0261  0.9970  0.0731
 
              Baa    -0.1673     7.989     2.851     2.665 -0.0718  0.0086  0.9974
     2 Ni(61) Bbb     0.0143    -0.683    -0.244    -0.228 -0.0221  0.9997 -0.0102
              Bcc     0.1530    -7.306    -2.607    -2.437  0.9972  0.0228  0.0716
 
              Baa    -0.1673     7.989     2.851     2.665  0.0718 -0.0086  0.9974
     3 Ni(61) Bbb     0.0143    -0.683    -0.244    -0.228 -0.0221  0.9997  0.0102
              Bcc     0.1530    -7.306    -2.607    -2.437  0.9972  0.0228 -0.0716
 
              Baa    -0.1680     8.024     2.863     2.677 -0.0094  0.0734  0.9973
     4 Ni(61) Bbb     0.0143    -0.681    -0.243    -0.227  0.9996 -0.0253  0.0113
              Bcc     0.1537    -7.343    -2.620    -2.449  0.0261  0.9970 -0.0731
 
              Baa    -0.0640     3.059     1.092     1.020 -0.1469 -0.1366  0.9797
     5 Ni(61) Bbb    -0.0631     3.013     1.075     1.005 -0.7060  0.7081 -0.0071
              Bcc     0.1271    -6.072    -2.166    -2.025  0.6928  0.6927  0.2005
 
              Baa    -0.0655     3.128     1.116     1.043  0.2041 -0.0621  0.9770
     6 Ni(61) Bbb    -0.0635     3.033     1.082     1.012  0.6909  0.7162 -0.0988
              Bcc     0.1290    -6.161    -2.198    -2.055 -0.6935  0.6952  0.1891
 
              Baa    -0.1536     7.335     2.617     2.447  0.0000  0.0000  1.0000
     7 Ni(61) Bbb     0.0724    -3.458    -1.234    -1.153  0.7338  0.6793  0.0000
              Bcc     0.0812    -3.877    -1.383    -1.293 -0.6793  0.7338  0.0000
 
              Baa    -0.0655     3.128     1.116     1.043 -0.2041  0.0621  0.9770
     8 Ni(61) Bbb    -0.0635     3.033     1.082     1.012  0.6909  0.7162  0.0988
              Bcc     0.1290    -6.161    -2.198    -2.055 -0.6935  0.6952 -0.1891
 
              Baa    -0.0640     3.059     1.092     1.020  0.1469  0.1366  0.9797
     9 Ni(61) Bbb    -0.0631     3.013     1.075     1.005 -0.7060  0.7081  0.0071
              Bcc     0.1271    -6.072    -2.166    -2.025  0.6928  0.6927 -0.2005
 
              Baa    -0.5195    24.811     8.853     8.276  0.0245 -0.5976  0.8015
    10 Ni(61) Bbb     0.0189    -0.900    -0.321    -0.300  0.9988  0.0482  0.0054
              Bcc     0.5006   -23.910    -8.532    -7.976 -0.0419  0.8004  0.5980
 
              Baa    -0.5193    24.802     8.850     8.273 -0.5973  0.0240  0.8017
    11 Ni(61) Bbb     0.0194    -0.928    -0.331    -0.309  0.0481  0.9988  0.0059
              Bcc     0.4999   -23.874    -8.519    -7.964  0.8006 -0.0421  0.5978
 
              Baa    -0.5193    24.802     8.850     8.273  0.5973 -0.0240  0.8017
    12 Ni(61) Bbb     0.0194    -0.928    -0.331    -0.309  0.0481  0.9988 -0.0059
              Bcc     0.4999   -23.874    -8.519    -7.964  0.8006 -0.0421 -0.5978
 
              Baa    -0.5195    24.811     8.853     8.276 -0.0245  0.5976  0.8015
    13 Ni(61) Bbb     0.0189    -0.900    -0.321    -0.300  0.9988  0.0482 -0.0054
              Bcc     0.5006   -23.910    -8.532    -7.976 -0.0419  0.8004 -0.5980
 
              Baa    -0.0762     3.638     1.298     1.214  0.8711 -0.4911  0.0000
    14 Ni(61) Bbb    -0.0744     3.555     1.268     1.186  0.4911  0.8711  0.0000
              Bcc     0.1506    -7.193    -2.567    -2.399  0.0000  0.0000  1.0000
 
              Baa    -0.0646     3.085     1.101     1.029  0.8968 -0.4424  0.0000
    15 Ni(61) Bbb    -0.0633     3.026     1.080     1.009  0.4424  0.8968  0.0000
              Bcc     0.1279    -6.110    -2.180    -2.038  0.0000  0.0000  1.0000
 
              Baa    -0.5181    24.747     8.830     8.255 -0.0253  0.5887  0.8079
    16 Ni(61) Bbb     0.0238    -1.136    -0.405    -0.379  0.9989  0.0477 -0.0035
              Bcc     0.4943   -23.611    -8.425    -7.876 -0.0406  0.8069 -0.5892
 
              Baa    -0.5177    24.726     8.823     8.248  0.5885 -0.0250  0.8081
    17 Ni(61) Bbb     0.0239    -1.144    -0.408    -0.382  0.0477  0.9989 -0.0038
              Bcc     0.4937   -23.582    -8.415    -7.866  0.8071 -0.0408 -0.5890
 
              Baa    -0.5177    24.726     8.823     8.248 -0.5885  0.0250  0.8081
    18 Ni(61) Bbb     0.0239    -1.144    -0.408    -0.382  0.0477  0.9989  0.0038
              Bcc     0.4937   -23.582    -8.415    -7.866  0.8071 -0.0408  0.5890
 
              Baa    -0.5181    24.747     8.830     8.255  0.0253 -0.5887  0.8079
    19 Ni(61) Bbb     0.0238    -1.136    -0.405    -0.379  0.9989  0.0477  0.0035
              Bcc     0.4943   -23.611    -8.425    -7.876 -0.0406  0.8069  0.5892
 
              Baa    -0.0647     3.090     1.103     1.031  0.1408  0.1271  0.9818
    20 Ni(61) Bbb    -0.0628     3.000     1.071     1.001 -0.7058  0.7084  0.0095
              Bcc     0.1275    -6.091    -2.173    -2.032  0.6943  0.6943 -0.1895
 
              Baa    -0.0661     3.158     1.127     1.053 -0.1758  0.0756  0.9815
    21 Ni(61) Bbb    -0.0632     3.019     1.077     1.007  0.6972  0.7134  0.0699
              Bcc     0.1293    -6.177    -2.204    -2.060 -0.6950  0.6966 -0.1782
 
              Baa    -0.1549     7.400     2.641     2.468  0.0000  0.0000  1.0000
    22 Ni(61) Bbb     0.0730    -3.487    -1.244    -1.163  0.7355  0.6775  0.0000
              Bcc     0.0819    -3.914    -1.396    -1.305 -0.6775  0.7355  0.0000
 
              Baa    -0.0661     3.158     1.127     1.053  0.1758 -0.0756  0.9815
    23 Ni(61) Bbb    -0.0632     3.019     1.077     1.007  0.6972  0.7134 -0.0699
              Bcc     0.1293    -6.177    -2.204    -2.060 -0.6950  0.6966  0.1782
 
              Baa    -0.0647     3.090     1.103     1.031 -0.1408 -0.1271  0.9818
    24 Ni(61) Bbb    -0.0628     3.000     1.071     1.001 -0.7058  0.7084 -0.0095
              Bcc     0.1275    -6.091    -2.173    -2.032  0.6943  0.6943  0.1895
 
              Baa    -0.1680     8.023     2.863     2.676 -0.0095  0.0734  0.9973
    25 Ni(61) Bbb     0.0143    -0.684    -0.244    -0.228  0.9996 -0.0253  0.0114
              Bcc     0.1537    -7.339    -2.619    -2.448  0.0261  0.9970 -0.0731
 
              Baa    -0.1672     7.988     2.850     2.665  0.0714 -0.0085  0.9974
    26 Ni(61) Bbb     0.0143    -0.685    -0.245    -0.229 -0.0220  0.9997  0.0100
              Bcc     0.1529    -7.303    -2.606    -2.436  0.9972  0.0227 -0.0712
 
              Baa    -0.1672     7.988     2.850     2.665 -0.0714  0.0085  0.9974
    27 Ni(61) Bbb     0.0143    -0.685    -0.245    -0.229 -0.0220  0.9997 -0.0100
              Bcc     0.1529    -7.303    -2.606    -2.436  0.9972  0.0227  0.0712
 
              Baa    -0.1680     8.023     2.863     2.676  0.0095 -0.0734  0.9973
    28 Ni(61) Bbb     0.0143    -0.684    -0.244    -0.228  0.9996 -0.0253 -0.0114
              Bcc     0.1537    -7.339    -2.619    -2.448  0.0261  0.9970  0.0731
 

 ---------------------------------------------------------------------------------

 No NMR shielding tensors so no spin-rotation constants.
 Leave Link  601 at Sat Jul  9 14:47:56 2022, MaxMem=   131072000 cpu:         4.2
 (Enter /home/palacios/Gaussian09/intel/v.D01/g09/l9999.exe)
 1\1\GINC-COMPUTE-1-0\SP\USVWN\Gen\Ni28(31)\PALACIOS\09-Jul-2022\0\\#p 
 LSDA/gen pseudo=read scf=(maxcycle=300,conver=5,nodamp) nosymm\\Ni9-Ni
 4-Ni-Ni-Ni4-Ni9.F\\0,31\Ni,0,0.,-3.5,-4.75\Ni,0,-3.5,0.,-4.75\Ni,0,3.5
 ,0.,-4.75\Ni,0,0.,3.5,-4.75\Ni,0,-1.75,-1.75,-4.75\Ni,0,1.75,-1.75,-4.
 75\Ni,0,0.,0.,-4.75\Ni,0,-1.75,1.75,-4.75\Ni,0,1.75,1.75,-4.75\Ni,0,0.
 ,-1.75,-3.\Ni,0,-1.75,0.,-3.\Ni,0,1.75,0.,-3.\Ni,0,0.,1.75,-3.\Ni,0,0.
 ,0.,-1.25\Ni,0,0.,0.,1.25\Ni,0,0.,-1.75,3.\Ni,0,-1.75,0.,3.\Ni,0,1.75,
 0.,3.\Ni,0,0.,1.75,3.\Ni,0,-1.75,-1.75,4.75\Ni,0,1.75,-1.75,4.75\Ni,0,
 0.,0.,4.75\Ni,0,-1.75,1.75,4.75\Ni,0,1.75,1.75,4.75\Ni,0,0.,-3.5,4.75\
 Ni,0,-3.5,0.,4.75\Ni,0,3.5,0.,4.75\Ni,0,0.,3.5,4.75\\Version=ES64L-G09
 RevD.01\HF=-1126.7688356\S2=240.\S2-1=0.\S2A=243.523008\RMSD=8.540e-06
 \Dipole=0.,-0.0000003,-0.043808\Quadrupole=-12.2550757,-12.2079186,24.
 4629943,-0.0392276,0.,0.0000003\PG=D04H [C4(Ni1Ni1.Ni1Ni1),2SGV(Ni8),2
 SGD(Ni4)]\\@


 It takes a long time to grow an old friend.
                            -- John Leonard
 Job cpu time:       0 days  2 hours 50 minutes 10.3 seconds.
 File lengths (MBytes):  RWF=     60 Int=      0 D2E=      0 Chk=      3 Scr=      1
 Normal termination of Gaussian 09 at Sat Jul  9 14:47:59 2022.
