 Entering Gaussian System, Link 0=g09
 Input=Ag8-chain.gjf
 Output=Ag8-chain.log
 Initial command:
 /home/palacios/Gaussian09/intel/v.D01/g09/l1.exe "/scratch/palacios/Gau-7175.inp" -scrdir="/scratch/palacios/"
 Entering Link 1 = /home/palacios/Gaussian09/intel/v.D01/g09/l1.exe PID=      7176.
  
 Copyright (c) 1988,1990,1992,1993,1995,1998,2003,2009,2013,
            Gaussian, Inc.  All Rights Reserved.
  
 This is part of the Gaussian(R) 09 program.  It is based on
 the Gaussian(R) 03 system (copyright 2003, Gaussian, Inc.),
 the Gaussian(R) 98 system (copyright 1998, Gaussian, Inc.),
 the Gaussian(R) 94 system (copyright 1995, Gaussian, Inc.),
 the Gaussian 92(TM) system (copyright 1992, Gaussian, Inc.),
 the Gaussian 90(TM) system (copyright 1990, Gaussian, Inc.),
 the Gaussian 88(TM) system (copyright 1988, Gaussian, Inc.),
 the Gaussian 86(TM) system (copyright 1986, Carnegie Mellon
 University), and the Gaussian 82(TM) system (copyright 1983,
 Carnegie Mellon University). Gaussian is a federally registered
 trademark of Gaussian, Inc.
  
 This software contains proprietary and confidential information,
 including trade secrets, belonging to Gaussian, Inc.
  
 This software is provided under written license and may be
 used, copied, transmitted, or stored only in accord with that
 written license.
  
 The following legend is applicable only to US Government
 contracts under FAR:
  
                    RESTRICTED RIGHTS LEGEND
  
 Use, reproduction and disclosure by the US Government is
 subject to restrictions as set forth in subparagraphs (a)
 and (c) of the Commercial Computer Software - Restricted
 Rights clause in FAR 52.227-19.
  
 Gaussian, Inc.
 340 Quinnipiac St., Bldg. 40, Wallingford CT 06492
  
  
 ---------------------------------------------------------------
 Warning -- This program may not be used in any manner that
 competes with the business of Gaussian, Inc. or will provide
 assistance to any competitor of Gaussian, Inc.  The licensee
 of this program is prohibited from giving any competitor of
 Gaussian, Inc. access to this program.  By using this program,
 the user acknowledges that Gaussian, Inc. is engaged in the
 business of creating and licensing software in the field of
 computational chemistry and represents and warrants to the
 licensee that it is not a competitor of Gaussian, Inc. and that
 it will not use this program in any manner prohibited above.
 ---------------------------------------------------------------
  

 Cite this work as:
 Gaussian 09, Revision D.01,
 M. J. Frisch, G. W. Trucks, H. B. Schlegel, G. E. Scuseria, 
 M. A. Robb, J. R. Cheeseman, G. Scalmani, V. Barone, B. Mennucci, 
 G. A. Petersson, H. Nakatsuji, M. Caricato, X. Li, H. P. Hratchian, 
 A. F. Izmaylov, J. Bloino, G. Zheng, J. L. Sonnenberg, M. Hada, 
 M. Ehara, K. Toyota, R. Fukuda, J. Hasegawa, M. Ishida, T. Nakajima, 
 Y. Honda, O. Kitao, H. Nakai, T. Vreven, J. A. Montgomery, Jr., 
 J. E. Peralta, F. Ogliaro, M. Bearpark, J. J. Heyd, E. Brothers, 
 K. N. Kudin, V. N. Staroverov, T. Keith, R. Kobayashi, J. Normand, 
 K. Raghavachari, A. Rendell, J. C. Burant, S. S. Iyengar, J. Tomasi, 
 M. Cossi, N. Rega, J. M. Millam, M. Klene, J. E. Knox, J. B. Cross, 
 V. Bakken, C. Adamo, J. Jaramillo, R. Gomperts, R. E. Stratmann, 
 O. Yazyev, A. J. Austin, R. Cammi, C. Pomelli, J. W. Ochterski, 
 R. L. Martin, K. Morokuma, V. G. Zakrzewski, G. A. Voth, 
 P. Salvador, J. J. Dannenberg, S. Dapprich, A. D. Daniels, 
 O. Farkas, J. B. Foresman, J. V. Ortiz, J. Cioslowski, 
 and D. J. Fox, Gaussian, Inc., Wallingford CT, 2013.
 
 ******************************************
 Gaussian 09:  AS64L-G09RevD.01 24-Apr-2013
                 8-Jul-2022 
 ******************************************
 %mem=1000MB
 %NProcShared=1
 Will use up to    1 processors via shared memory.
 %Subst L101 ../../bin
 %Subst L502 ../../bin
 ---------------------------------------------------
 #p lsda/gen pseudo=read Scf=(conver=5,nodamp,dsymm)
 ---------------------------------------------------
 1/38=1/1;
 2/12=2,17=6,18=5,40=1/2;
 3/5=7,11=2,16=1,17=8,25=1,30=1,74=205/1,2,3;
 4//1;
 5/5=2,6=5,17=200,18=-2,38=5/2;
 6/7=2,8=2,9=2,10=2,28=1/1;
 99/5=1,9=1/99;
 Leave Link    1 at Fri Jul  8 12:52:02 2022, MaxMem=   131072000 cpu:         0.0
 (Enter ../../bin/l101.exe)
 ---------
 Ag8-chain
 ---------
 Symbolic Z-matrix:
 Charge =  0 Multiplicity = 1
 Ag                    0.        0.        0. 
 Ag                    0.        0.        3. 
 Ag                    0.        0.        9. 
 Ag                    0.        0.        12. 
 Ag                    0.        0.        15. 
 Ag                    0.        0.        18. 
 Ag                    0.        0.        21. 
 Ag                    0.        0.        24. 
 
 NAtoms=      8 NQM=        8 NQMF=       0 NMMI=      0 NMMIF=      0
                NMic=       0 NMicF=      0.
                    Isotopes and Nuclear Properties:
 (Nuclear quadrupole moments (NQMom) in fm**2, nuclear magnetic moments (NMagM)
  in nuclear magnetons)

  Atom         1           2           3           4           5           6           7           8
 IAtWgt=         107         107         107         107         107         107         107         107
 AtmWgt= 106.9050900 106.9050900 106.9050900 106.9050900 106.9050900 106.9050900 106.9050900 106.9050900
 NucSpn=           1           1           1           1           1           1           1           1
 AtZEff=   0.0000000   0.0000000   0.0000000   0.0000000   0.0000000   0.0000000   0.0000000   0.0000000
 NQMom=    0.0000000   0.0000000   0.0000000   0.0000000   0.0000000   0.0000000   0.0000000   0.0000000
 NMagM=   -0.1135700  -0.1135700  -0.1135700  -0.1135700  -0.1135700  -0.1135700  -0.1135700  -0.1135700
 AtZNuc=  47.0000000  47.0000000  47.0000000  47.0000000  47.0000000  47.0000000  47.0000000  47.0000000
 Leave Link  101 at Fri Jul  8 12:52:02 2022, MaxMem=   131072000 cpu:         0.0
 (Enter /home/palacios/Gaussian09/intel/v.D01/g09/l202.exe)
                          Input orientation:                          
 ---------------------------------------------------------------------
 Center     Atomic      Atomic             Coordinates (Angstroms)
 Number     Number       Type             X           Y           Z
 ---------------------------------------------------------------------
      1         47           0        0.000000    0.000000    0.000000
      2         47           0        0.000000    0.000000    3.000000
      3         47           0        0.000000    0.000000    9.000000
      4         47           0        0.000000    0.000000   12.000000
      5         47           0        0.000000    0.000000   15.000000
      6         47           0        0.000000    0.000000   18.000000
      7         47           0        0.000000    0.000000   21.000000
      8         47           0        0.000000    0.000000   24.000000
 ---------------------------------------------------------------------
                    Distance matrix (angstroms):
                    1          2          3          4          5
     1  Ag   0.000000
     2  Ag   3.000000   0.000000
     3  Ag   9.000000   6.000000   0.000000
     4  Ag  12.000000   9.000000   3.000000   0.000000
     5  Ag  15.000000  12.000000   6.000000   3.000000   0.000000
     6  Ag  18.000000  15.000000   9.000000   6.000000   3.000000
     7  Ag  21.000000  18.000000  12.000000   9.000000   6.000000
     8  Ag  24.000000  21.000000  15.000000  12.000000   9.000000
                    6          7          8
     6  Ag   0.000000
     7  Ag   3.000000   0.000000
     8  Ag   6.000000   3.000000   0.000000
 Stoichiometry    Ag8
 Framework group  C*V[C*(AgAgAgAgAgAgAgAg)]
 Deg. of freedom     7
 Full point group                 C*V     NOp   4
 Largest Abelian subgroup         C2V     NOp   4
 Largest concise Abelian subgroup C1      NOp   1
                         Standard orientation:                         
 ---------------------------------------------------------------------
 Center     Atomic      Atomic             Coordinates (Angstroms)
 Number     Number       Type             X           Y           Z
 ---------------------------------------------------------------------
      1         47           0        0.000000    0.000000   12.750000
      2         47           0        0.000000    0.000000    9.750000
      3         47           0        0.000000    0.000000    3.750000
      4         47           0        0.000000    0.000000    0.750000
      5         47           0        0.000000    0.000000   -2.250000
      6         47           0        0.000000    0.000000   -5.250000
      7         47           0        0.000000    0.000000   -8.250000
      8         47           0        0.000000    0.000000  -11.250000
 ---------------------------------------------------------------------
 Rotational constants (GHZ):      0.0000000      0.0094642      0.0094642
 Leave Link  202 at Fri Jul  8 12:52:02 2022, MaxMem=   131072000 cpu:         0.0
 (Enter /home/palacios/Gaussian09/intel/v.D01/g09/l301.exe)
 General basis read from cards:  (5D, 7F)
 Centers:       1      2      3      4      5      6      7      8
 S 3 1.00
     Exponent=  4.9810000000D-01 Coefficients= -3.2332200000D-01
     Exponent=  1.5860000000D-01 Coefficients=  4.2564500000D-01
     Exponent=  4.7100000000D-02 Coefficients=  7.9261400000D-01
 P 3 1.00
     Exponent=  7.5890000000D-01 Coefficients= -2.8534000000D-02
     Exponent=  9.0800000000D-02 Coefficients=  3.9044500000D-01
     Exponent=  2.8300000000D-02 Coefficients=  7.0070800000D-01
 D 4 1.00
     Exponent=  2.4127000000D+00 Coefficients=  3.0885300000D-01
     Exponent=  1.0153000000D+00 Coefficients=  4.5043400000D-01
     Exponent=  4.0930000000D-01 Coefficients=  3.3831000000D-01
     Exponent=  1.5030000000D-01 Coefficients=  1.2944000000D-01
 ****
 ======================================================================================================
                                       Pseudopotential Parameters
 ======================================================================================================
  Center     Atomic      Valence      Angular      Power
  Number     Number     Electrons     Momentum     of R      Exponent        Coefficient   SO-Coeffient
 ======================================================================================================
    1         47           11
                                      F and up 
                                                     2        1.0708000       -1.54570901    0.00000000
                                                     2        2.8520000       -9.91327572    0.00000000
                                                     2       11.1708002      -44.19367218    0.00000000
                                                     1       32.3418007      -21.82627869    0.00000000
                                      S - F
                                                     2        1.6540000      171.23280334    0.00000000
                                                     2        1.9916000     -307.32479858    0.00000000
                                                     2        2.6903999      280.42736816    0.00000000
                                                     2        3.7328999     -153.77388000    0.00000000
                                                     1        4.3610001       40.92211151    0.00000000
                                                     0       18.4864998        3.48360991    0.00000000
                                      P - F
                                                     2        1.2197000      123.84740448    0.00000000
                                                     2        1.4884000     -238.36637878    0.00000000
                                                     2        2.0432999      222.44552612    0.00000000
                                                     2        2.8227999     -103.42056274    0.00000000
                                                     1        4.0978999       30.84042740    0.00000000
                                                     0       15.1473999        5.18727016    0.00000000
                                      D - F
                                                     2        0.2939000       -0.09446900    0.00000000
                                                     2        0.9250000       -3.48698401    0.00000000
                                                     2        2.0978999      -38.78794098    0.00000000
                                                     2        2.5294001       34.73471451    0.00000000
                                                     1        1.0637000        9.89155388    0.00000000
                                                     0       10.9393997        7.72656393    0.00000000
    2         47           11
                                      F and up 
                                                     2        1.0708000       -1.54570901    0.00000000
                                                     2        2.8520000       -9.91327572    0.00000000
                                                     2       11.1708002      -44.19367218    0.00000000
                                                     1       32.3418007      -21.82627869    0.00000000
                                      S - F
                                                     2        1.6540000      171.23280334    0.00000000
                                                     2        1.9916000     -307.32479858    0.00000000
                                                     2        2.6903999      280.42736816    0.00000000
                                                     2        3.7328999     -153.77388000    0.00000000
                                                     1        4.3610001       40.92211151    0.00000000
                                                     0       18.4864998        3.48360991    0.00000000
                                      P - F
                                                     2        1.2197000      123.84740448    0.00000000
                                                     2        1.4884000     -238.36637878    0.00000000
                                                     2        2.0432999      222.44552612    0.00000000
                                                     2        2.8227999     -103.42056274    0.00000000
                                                     1        4.0978999       30.84042740    0.00000000
                                                     0       15.1473999        5.18727016    0.00000000
                                      D - F
                                                     2        0.2939000       -0.09446900    0.00000000
                                                     2        0.9250000       -3.48698401    0.00000000
                                                     2        2.0978999      -38.78794098    0.00000000
                                                     2        2.5294001       34.73471451    0.00000000
                                                     1        1.0637000        9.89155388    0.00000000
                                                     0       10.9393997        7.72656393    0.00000000
    3         47           11
                                      F and up 
                                                     2        1.0708000       -1.54570901    0.00000000
                                                     2        2.8520000       -9.91327572    0.00000000
                                                     2       11.1708002      -44.19367218    0.00000000
                                                     1       32.3418007      -21.82627869    0.00000000
                                      S - F
                                                     2        1.6540000      171.23280334    0.00000000
                                                     2        1.9916000     -307.32479858    0.00000000
                                                     2        2.6903999      280.42736816    0.00000000
                                                     2        3.7328999     -153.77388000    0.00000000
                                                     1        4.3610001       40.92211151    0.00000000
                                                     0       18.4864998        3.48360991    0.00000000
                                      P - F
                                                     2        1.2197000      123.84740448    0.00000000
                                                     2        1.4884000     -238.36637878    0.00000000
                                                     2        2.0432999      222.44552612    0.00000000
                                                     2        2.8227999     -103.42056274    0.00000000
                                                     1        4.0978999       30.84042740    0.00000000
                                                     0       15.1473999        5.18727016    0.00000000
                                      D - F
                                                     2        0.2939000       -0.09446900    0.00000000
                                                     2        0.9250000       -3.48698401    0.00000000
                                                     2        2.0978999      -38.78794098    0.00000000
                                                     2        2.5294001       34.73471451    0.00000000
                                                     1        1.0637000        9.89155388    0.00000000
                                                     0       10.9393997        7.72656393    0.00000000
    4         47           11
                                      F and up 
                                                     2        1.0708000       -1.54570901    0.00000000
                                                     2        2.8520000       -9.91327572    0.00000000
                                                     2       11.1708002      -44.19367218    0.00000000
                                                     1       32.3418007      -21.82627869    0.00000000
                                      S - F
                                                     2        1.6540000      171.23280334    0.00000000
                                                     2        1.9916000     -307.32479858    0.00000000
                                                     2        2.6903999      280.42736816    0.00000000
                                                     2        3.7328999     -153.77388000    0.00000000
                                                     1        4.3610001       40.92211151    0.00000000
                                                     0       18.4864998        3.48360991    0.00000000
                                      P - F
                                                     2        1.2197000      123.84740448    0.00000000
                                                     2        1.4884000     -238.36637878    0.00000000
                                                     2        2.0432999      222.44552612    0.00000000
                                                     2        2.8227999     -103.42056274    0.00000000
                                                     1        4.0978999       30.84042740    0.00000000
                                                     0       15.1473999        5.18727016    0.00000000
                                      D - F
                                                     2        0.2939000       -0.09446900    0.00000000
                                                     2        0.9250000       -3.48698401    0.00000000
                                                     2        2.0978999      -38.78794098    0.00000000
                                                     2        2.5294001       34.73471451    0.00000000
                                                     1        1.0637000        9.89155388    0.00000000
                                                     0       10.9393997        7.72656393    0.00000000
    5         47           11
                                      F and up 
                                                     2        1.0708000       -1.54570901    0.00000000
                                                     2        2.8520000       -9.91327572    0.00000000
                                                     2       11.1708002      -44.19367218    0.00000000
                                                     1       32.3418007      -21.82627869    0.00000000
                                      S - F
                                                     2        1.6540000      171.23280334    0.00000000
                                                     2        1.9916000     -307.32479858    0.00000000
                                                     2        2.6903999      280.42736816    0.00000000
                                                     2        3.7328999     -153.77388000    0.00000000
                                                     1        4.3610001       40.92211151    0.00000000
                                                     0       18.4864998        3.48360991    0.00000000
                                      P - F
                                                     2        1.2197000      123.84740448    0.00000000
                                                     2        1.4884000     -238.36637878    0.00000000
                                                     2        2.0432999      222.44552612    0.00000000
                                                     2        2.8227999     -103.42056274    0.00000000
                                                     1        4.0978999       30.84042740    0.00000000
                                                     0       15.1473999        5.18727016    0.00000000
                                      D - F
                                                     2        0.2939000       -0.09446900    0.00000000
                                                     2        0.9250000       -3.48698401    0.00000000
                                                     2        2.0978999      -38.78794098    0.00000000
                                                     2        2.5294001       34.73471451    0.00000000
                                                     1        1.0637000        9.89155388    0.00000000
                                                     0       10.9393997        7.72656393    0.00000000
    6         47           11
                                      F and up 
                                                     2        1.0708000       -1.54570901    0.00000000
                                                     2        2.8520000       -9.91327572    0.00000000
                                                     2       11.1708002      -44.19367218    0.00000000
                                                     1       32.3418007      -21.82627869    0.00000000
                                      S - F
                                                     2        1.6540000      171.23280334    0.00000000
                                                     2        1.9916000     -307.32479858    0.00000000
                                                     2        2.6903999      280.42736816    0.00000000
                                                     2        3.7328999     -153.77388000    0.00000000
                                                     1        4.3610001       40.92211151    0.00000000
                                                     0       18.4864998        3.48360991    0.00000000
                                      P - F
                                                     2        1.2197000      123.84740448    0.00000000
                                                     2        1.4884000     -238.36637878    0.00000000
                                                     2        2.0432999      222.44552612    0.00000000
                                                     2        2.8227999     -103.42056274    0.00000000
                                                     1        4.0978999       30.84042740    0.00000000
                                                     0       15.1473999        5.18727016    0.00000000
                                      D - F
                                                     2        0.2939000       -0.09446900    0.00000000
                                                     2        0.9250000       -3.48698401    0.00000000
                                                     2        2.0978999      -38.78794098    0.00000000
                                                     2        2.5294001       34.73471451    0.00000000
                                                     1        1.0637000        9.89155388    0.00000000
                                                     0       10.9393997        7.72656393    0.00000000
    7         47           11
                                      F and up 
                                                     2        1.0708000       -1.54570901    0.00000000
                                                     2        2.8520000       -9.91327572    0.00000000
                                                     2       11.1708002      -44.19367218    0.00000000
                                                     1       32.3418007      -21.82627869    0.00000000
                                      S - F
                                                     2        1.6540000      171.23280334    0.00000000
                                                     2        1.9916000     -307.32479858    0.00000000
                                                     2        2.6903999      280.42736816    0.00000000
                                                     2        3.7328999     -153.77388000    0.00000000
                                                     1        4.3610001       40.92211151    0.00000000
                                                     0       18.4864998        3.48360991    0.00000000
                                      P - F
                                                     2        1.2197000      123.84740448    0.00000000
                                                     2        1.4884000     -238.36637878    0.00000000
                                                     2        2.0432999      222.44552612    0.00000000
                                                     2        2.8227999     -103.42056274    0.00000000
                                                     1        4.0978999       30.84042740    0.00000000
                                                     0       15.1473999        5.18727016    0.00000000
                                      D - F
                                                     2        0.2939000       -0.09446900    0.00000000
                                                     2        0.9250000       -3.48698401    0.00000000
                                                     2        2.0978999      -38.78794098    0.00000000
                                                     2        2.5294001       34.73471451    0.00000000
                                                     1        1.0637000        9.89155388    0.00000000
                                                     0       10.9393997        7.72656393    0.00000000
    8         47           11
                                      F and up 
                                                     2        1.0708000       -1.54570901    0.00000000
                                                     2        2.8520000       -9.91327572    0.00000000
                                                     2       11.1708002      -44.19367218    0.00000000
                                                     1       32.3418007      -21.82627869    0.00000000
                                      S - F
                                                     2        1.6540000      171.23280334    0.00000000
                                                     2        1.9916000     -307.32479858    0.00000000
                                                     2        2.6903999      280.42736816    0.00000000
                                                     2        3.7328999     -153.77388000    0.00000000
                                                     1        4.3610001       40.92211151    0.00000000
                                                     0       18.4864998        3.48360991    0.00000000
                                      P - F
                                                     2        1.2197000      123.84740448    0.00000000
                                                     2        1.4884000     -238.36637878    0.00000000
                                                     2        2.0432999      222.44552612    0.00000000
                                                     2        2.8227999     -103.42056274    0.00000000
                                                     1        4.0978999       30.84042740    0.00000000
                                                     0       15.1473999        5.18727016    0.00000000
                                      D - F
                                                     2        0.2939000       -0.09446900    0.00000000
                                                     2        0.9250000       -3.48698401    0.00000000
                                                     2        2.0978999      -38.78794098    0.00000000
                                                     2        2.5294001       34.73471451    0.00000000
                                                     1        1.0637000        9.89155388    0.00000000
                                                     0       10.9393997        7.72656393    0.00000000
 ======================================================================================================
 Ernie: Thresh=  0.10000D-02 Tol=  0.10000D-05 Strict=F.
 There are    40 symmetry adapted cartesian basis functions of A1  symmetry.
 There are     8 symmetry adapted cartesian basis functions of A2  symmetry.
 There are    16 symmetry adapted cartesian basis functions of B1  symmetry.
 There are    16 symmetry adapted cartesian basis functions of B2  symmetry.
 There are    32 symmetry adapted basis functions of A1  symmetry.
 There are     8 symmetry adapted basis functions of A2  symmetry.
 There are    16 symmetry adapted basis functions of B1  symmetry.
 There are    16 symmetry adapted basis functions of B2  symmetry.
    72 basis functions,   288 primitive gaussians,    80 cartesian basis functions
    44 alpha electrons       44 beta electrons
       nuclear repulsion energy       267.0221894816 Hartrees.
 IExCor=  205 DFT=T Ex=S Corr=VWN ExCW=0 ScaHFX=  0.000000
 ScaDFX=  1.000000  1.000000  1.000000  1.000000 ScalE2=  1.000000  1.000000
 IRadAn=      0 IRanWt=     -1 IRanGd=            0 ICorTp=0 IEmpDi=  4
 NAtoms=    8 NActive=    8 NUniq=    8 SFac= 1.00D+00 NAtFMM=   60 NAOKFM=F Big=F
 Integral buffers will be    131072 words long.
 Raffenetti 2 integral format.
 Two-electron integral symmetry is turned on.
 Leave Link  301 at Fri Jul  8 12:52:02 2022, MaxMem=   131072000 cpu:         0.0
 (Enter /home/palacios/Gaussian09/intel/v.D01/g09/l302.exe)
 NPDir=0 NMtPBC=     1 NCelOv=     1 NCel=       1 NClECP=     1 NCelD=      1
         NCelK=      1 NCelE2=     1 NClLst=     1 CellRange=     0.0.
 One-electron integrals computed using PRISM.
   1 Symmetry operations used in ECPInt.
 ECPInt:  NShTT=     300 NPrTT=    3336 LenC2=     287 LenP2D=    2442.
 LDataN:  DoStor=T MaxTD1= 5 Len=  102
 GSVD:  received Info=                   1 from GESDD.
 NBasis=    72 RedAO= T EigKep=  5.19D-02  NBF=    32     8    16    16
 NBsUse=    72 1.00D-06 EigRej= -1.00D+00 NBFU=    32     8    16    16
 Precomputing XC quadrature grid using
 IXCGrd= 4 IRadAn=           0 IRanWt=          -1 IRanGd=           0 AccXCQ= 0.00D+00.
 Defaulting to unpruned grid for atomic number  47.
 Generated NRdTot=       0 NPtTot=           0 NUsed=           0 NTot=          32
 NSgBfM=    80    80    80    80    80 MxSgAt=     8 MxSgA2=     8.
 Leave Link  302 at Fri Jul  8 12:52:03 2022, MaxMem=   131072000 cpu:         1.0
 (Enter /home/palacios/Gaussian09/intel/v.D01/g09/l303.exe)
 DipDrv:  MaxL=1.
 Leave Link  303 at Fri Jul  8 12:52:03 2022, MaxMem=   131072000 cpu:         0.0
 (Enter /home/palacios/Gaussian09/intel/v.D01/g09/l401.exe)
 ExpMin= 2.83D-02 ExpMax= 2.41D+00 ExpMxC= 2.41D+00 IAcc=3 IRadAn=         5 AccDes= 0.00D+00
 Harris functional with IExCor=  205 and IRadAn=       5 diagonalized for initial guess.
 HarFok:  IExCor=  205 AccDes= 0.00D+00 IRadAn=         5 IDoV= 1 UseB2=F ITyADJ=14
 ICtDFT=  3500011 ScaDFX=  1.000000  1.000000  1.000000  1.000000
 Defaulting to unpruned grid for atomic number  47.
 FoFCou: FMM=F IPFlag=           0 FMFlag=      100000 FMFlg1=           0
         NFxFlg=           0 DoJE=T BraDBF=F KetDBF=T FulRan=T
         wScrn=  0.000000 ICntrl=     500 IOpCl=  0 I1Cent=   200000004 NGrid=           0
         NMat0=    1 NMatS0=      1 NMatT0=    0 NMatD0=    1 NMtDS0=    0 NMtDT0=    0
 Petite list used in FoFCou.
 Harris En= -311.326171015533    
 JPrj=0 DoOrth=F DoCkMO=F.
 Initial guess orbital symmetries:
       Occupied  (SG) (SG) (PI) (PI) (PI) (PI) (SG) (SG) (PI) (PI)
                 (DLTA) (DLTA) (PI) (PI) (DLTA) (DLTA) (DLTA) (DLTA)
                 (DLTA) (DLTA) (PI) (PI) (SG) (DLTA) (DLTA) (DLTA)
                 (DLTA) (DLTA) (DLTA) (DLTA) (DLTA) (PI) (PI) (PI)
                 (PI) (PI) (PI) (SG) (SG) (SG) (SG) (SG) (SG) (SG)
       Virtual   (SG) (SG) (SG) (SG) (PI) (PI) (PI) (PI) (PI) (PI)
                 (SG) (PI) (PI) (PI) (PI) (PI) (PI) (SG) (PI) (PI)
                 (PI) (PI) (SG) (SG) (SG) (SG) (SG) (SG)
 The electronic state of the initial guess is 1-SG.
 Leave Link  401 at Fri Jul  8 12:52:03 2022, MaxMem=   131072000 cpu:         0.3
 (Enter ../../bin/l502.exe)
 Closed shell SCF:
 Using DIIS extrapolation, IDIIS=  1040.
 Integral symmetry usage will be decided dynamically.
 Keep J ints in memory in symmetry-blocked form, NReq=4402616.
 IVT=       38906 IEndB=       38906 NGot=   131072000 MDV=   130133885
 LenX=   130133885 LenY=   130127044
 Requested convergence on RMS density matrix=1.00D-05 within 128 cycles.
 Requested convergence on MAX density matrix=1.00D-03.
 Requested convergence on             energy=1.00D-03.
 No special actions if energy rises.
 FoFCou: FMM=F IPFlag=           0 FMFlag=           0 FMFlg1=           0
         NFxFlg=           0 DoJE=F BraDBF=F KetDBF=F FulRan=T
         wScrn=  0.000000 ICntrl=     600 IOpCl=  0 I1Cent=           0 NGrid=           0
         NMat0=    1 NMatS0=   2628 NMatT0=    0 NMatD0=    1 NMtDS0=    0 NMtDT0=    0
 Petite list used in FoFCou.

 Cycle   1  Pass 1  IDiag  1:
 
  ****************************************************************** 
  ***                                                            *** 
  ***                      A l i c a n t e                       *** 
  ***                      N a n o                               *** 
  ***                      T r a n s p o r t                     *** 
  ***                      G 0 9                                 *** 
  ***                                                            *** 
  ****************************************************************** 
  ***                     Version: 2.5.2                         *** 
  ****************************************************************** 
  *  Copyright (c) by                                              * 
  *                                                                * 
  *  Juan Jose Palacios (1)                                        * 
  *  David Jacob (2)                                               * 
  *  Maria Soriano (1,5)                                           * 
  *  Angel J. Perez-Jimenez (3)                                    * 
  *  Emilio SanFabian (3)                                          * 
  *  Jose Antonio Antonio Verges (4)                               * 
  *  Enrique Louis (5)                                             * 
  *  Wynand Dednam (5)                                             * 
  *                                                                * 
  * (1) Departamento de Fisica de la Materia Condensada            * 
  *     Universidad Autonoma de Madrid                             * 
  *     28049 Madrid (SPAIN)                                       * 
  * (2) Theory Department                                          * 
  *     Max-Planck-Institute for Microstructure Physics            * 
  *     Halle, 06120 (GERMANY)                                     * 
  * (3) Departamento de Quimica Fisica                             * 
  *     Universidad de Alicante                                    * 
  *     03690 Alicante (SPAIN)                                     * 
  * (4) Insto. de Ciencias de Materiales de Madrid (ICMM)          * 
  *     Consejo Superior de Investigacion y Ciencia (CSIC)         * 
  *     28049 Madrid (SPAIN)                                       * 
  * (5) Departamento de Fisica Aplicada                            * 
  *     Universidad de Alicante                                    * 
  *     03690 Alicante (SPAIN)                                     * 
  *                                                                * 
  ****************************************************************** 
 
  ****************************************************************** 
  *                                                                * 
  *              Initializing ANT.G09 modules                      * 
  *                                                                * 
  ****************************************************************** 
 
 Scanning Ag8-chain.ant file for parameter specifications...
 Done.
 ****************************
 Basic calculation parameters
 ****************************
 ALPHA      =   3.000000000000000E-002
 NPULAY     =                      4
 CHARGEACC  =   1.000000000000000E-005  %
 FERMIACC   =   1.000000000000000E-005  %
 PACC       =   1.000000000000000E-007  %
 FULLACC    =  F
 MAX        =                     15
 SELFACC    =   1.000000000000000E-006
 SMALL      =   0.100000000000000     
 SMALLD     =   0.100000000000000       A
 BIASVOLT   =   0.000000000000000E+000  V
 QEXCESS    =   0.000000000000000E+000 electrons
 ETA        =   1.000000000000000E-010
 GLUE       =    1.00000000000000     
 FERMISTART =   -5.00000000000000       eV
 SOC        =  F
 SOCFAC     =   0.000000000000000E+000
 SOC_CFF_P  =   0.000000000000000E+000  eV
 SOC_CFF_D  =   0.000000000000000E+000  eV
 SOC_CFF_F  =   0.000000000000000E+000  eV
 ROT        =  F
 THETA      =   0.000000000000000E+000  degrees
 PHI        =   0.000000000000000E+000  degrees
 SL         =   1.000000000000000E-002
 DMIMAG     =  F
 FMIXING    =  F
 ************************
 Bethe lattice parameters
 ************************
 TYPE1      = 1DLEAD    
 TYPE2      = 1DLEAD    
 BLPAR1     = Papacon             
 BLPAR2     = Papacon             
 NEMBED1    =                      3
 NEMBED2    =                      3
 NPC        =                      1
 NATOMEL1   = ? 
 NATOMEL2   = ? 
 OVERLAP    = System Overlap
 *************************
 Spin transport parameters
 *************************
 SWOFFSPL   =   1.000000000000000E-003
 NSPINLOCK  =                      0
 NALPHA     =                     -1
 NBETA      =                     -1
 DU         =  F
 UD         =  F
 DD         =  F
 MRSTART    =                      0
 SPINDEL    =  F
 SPINEDIT   =                      0
 SOCFACATOM =                      0
 SPINROTATO =                      0
 SOCEDIT    =                      0
 ***********************
 Correlations parameters
 ***********************
 CORRBLOCKS =                      0
 PORTHO     =  F
 HYBFUNC    =  F
 DFT+U      =  F
 DIAGCORRBL =  F
 *****************
 Output parameters
 *****************
 HAMILTON   =  F
 MULLIKEN   =  F
 HTRANSM    =  F
 ESTEP      =   1.000000000000000E-002
 DOSENERGY  =   0.000000000000000E+000
 EW1        =   -3.00000000000000     
 EW2        =    3.00000000000000     
 LDOS_BEG   =                      1
 LDOS_END   =                      0
 RTM_BEG    =                      1
 RTM_END    =                      0
 NCHANNELS  =                      0
 LEADDOS    =  F
 PRTHATOM   =                      1
 -------------------
 Initializing device
 -------------------
 ----------------------------------------------------------
 Analyzing cluster for the connection of the  Bethe Lattice
 ----------------------------------------------------------
 
 Atom type of lead 1: Ag
 Atom type of lead 2: Ag
 
    1   47  11.    9    1    9
    2   47  11.    9   10   18
    3   47  11.    9   19   27
    4   47  11.    9   28   36
    5   47  11.    9   37   45
    6   47  11.    9   46   54
    7   47  11.    9   55   63
    8   47  11.    9   64   72
 
  Center of charge:
   0.000000   0.000000   0.000000
 
                     4 nlead1
  Atoms in left electrode:                     4
   1  Ag   0.000000   0.000000  24.094008
   2  Ag   0.000000   0.000000  18.424830
   3  Ag   0.000000   0.000000   7.086473
   4  Ag   0.000000   0.000000   1.417295
 
  Atoms in molecule:                     0
 
  Atoms in right electrode:                     4
   5  Ag   0.000000   0.000000 -21.259419
   6  Ag   0.000000   0.000000 -15.590241
   7  Ag   0.000000   0.000000  -9.921062
   8  Ag   0.000000   0.000000  -4.251884
 
 ---------------------------------------------------
  Details on device and contacting atoms -----------
 ---------------------------------------------------
 NEmbed(1) =                     3
 NEmbed(2) =                     3
 Number of electrons in neutral reduced device (NCDEl) =                     22
 First and last orbital in reduced device
 NCDAO1 =                     28
 NCDAO2 =                     45
 ---------------------------------------------------
 -------------------------------------------------------------------------------
 ------------
 Starting calculation with density matrix from file  
 P.Ag8-chain.dat                                   
 -------------------------------------------------------------------------------
 ------------
 Tr[P*S] of initial guess =   88.0462052626224     
 --------------------------------
 Defaulting to unpruned grid for atomic number  47.
 E= -311.521191018180    
 -------------------------------------------------------------------------
 Computing the density matrix at cycle:                     1
 -------------------------------------------------------------------------
 *******************************
 *    Initializing Lead No.                      1
 *******************************
Searching optimum Emin such that DOS integrates to zero ...
GauLeg quadrature converged after  127 steps.
 EMin =   -10.0000000000000        30.0003650761608     
GauLeg quadrature converged after   63 steps.
 EMin =   -20.0000000000000       5.548712424596758E-005
Searching optimum EMax such that the DOS integrates to the total spectral weight in the unit cell ...
GauLeg quadrature converged after   31 steps.
 EMax =    30.0000000000000        52.9141507283160     
GauLeg quadrature converged after   31 steps.
 EMax =    40.0000000000000        53.2473068141092     
GauLeg quadrature converged after   31 steps.
 EMax =    50.0000000000000        53.4524917784879     
GauLeg quadrature converged after   31 steps.
 EMax =    60.0000000000000        53.6108491779174     
GauLeg quadrature converged after   31 steps.
 EMax =    70.0000000000000        53.7601155704639     
GauLeg quadrature converged after   31 steps.
 EMax =    80.0000000000000        53.9973140027786     
 EMin=  -30.0000000000000        EMax=   80.0000000000000     
 Searching Fermi energy...
 ChargeOffset   33.0000000000000     
 Bisec Method
GauLeg quadrature converged after   15 steps.
GauLeg quadrature converged after    3 steps.
GauLeg quadrature converged after    7 steps.
GauLeg quadrature converged after   31 steps.
GauLeg quadrature converged after   15 steps.
GauLeg quadrature converged after   15 steps.
GauLeg quadrature converged after   31 steps.
GauLeg quadrature converged after   31 steps.
GauLeg quadrature converged after   63 steps.
GauLeg quadrature converged after   31 steps.
GauLeg quadrature converged after  127 steps.
GauLeg quadrature converged after   15 steps.
GauLeg quadrature converged after   31 steps.
EFermi in bulk electrode   1 =   -4.97070
 Lead Hamiltonian shifted by -EFermi =    4.97070312500000     
 *******************************
 *    Initializing Lead No.                      2
 *******************************
Searching optimum Emin such that DOS integrates to zero ...
GauLeg quadrature converged after  255 steps.
 EMin =   -10.0000000000000        30.0000150616123     
GauLeg quadrature converged after   63 steps.
 EMin =   -20.0000000000000       5.915647776388866E-005
Searching optimum EMax such that the DOS integrates to the total spectral weight in the unit cell ...
GauLeg quadrature converged after   15 steps.
 EMax =    30.0000000000000        51.6869809822750     
GauLeg quadrature converged after   63 steps.
 EMax =    40.0000000000000        53.9996700786093     
 EMin=  -30.0000000000000        EMax=   40.0000000000000     
 Searching Fermi energy...
 ChargeOffset   33.0000000000000     
 Bisec Method
GauLeg quadrature converged after    7 steps.
GauLeg quadrature converged after    3 steps.
GauLeg quadrature converged after   15 steps.
GauLeg quadrature converged after   31 steps.
GauLeg quadrature converged after   15 steps.
GauLeg quadrature converged after   15 steps.
GauLeg quadrature converged after   31 steps.
GauLeg quadrature converged after   15 steps.
GauLeg quadrature converged after   31 steps.
GauLeg quadrature converged after   31 steps.
GauLeg quadrature converged after   15 steps.
GauLeg quadrature converged after   15 steps.
EFermi in bulk electrode   2 =   -4.98047
 Lead Hamiltonian shifted by -EFermi =    4.98046875000000     
 -----------------------
 Estimated Energy Bounds
 -----------------------
 EMin=  -30.5540006698234     
 EMax=   84.9707031250000     
 -----------------------
  Total DOS Point Check 
 -----------------------
 Checking energy bounds [EMin, EMax] such that ...
 ...Total Integrated Spectral Weight (TISW)=  36
TotCharge/Gaussian quadrature gives     3  28.99405
TotCharge/Gaussian quadrature gives     7  36.48751
TotCharge/Gaussian quadrature gives    15  35.99635
TotCharge/Gaussian quadrature has converged after  15 steps. Error:   0.00366
TotCharge/Gaussian quadrature gives    36.00000
 EMin=        -30.554  EMax=         84.971  TISW=    36.00000 OK
 --------------------------------------------------
 MULLER method
 Integration of the density matrix on the complex plane has needed   32 points
 Integration of the density matrix on the complex plane has needed   16 points
 Integration of the density matrix on the complex plane has needed    8 points
 Integration of the density matrix on the complex plane has needed   16 points
 Integration of the density matrix on the complex plane has needed   16 points
 -----------------------------------------------
 Fermi energy=  -5.02133  +/-  0.00002
 
 Number of alpha electrons:   11.00000
 Number of beta electrons:    11.00000
 Total number of electrons:    22.00000
 -----------------------------------------------
 DIIS: error= 7.78D-03 at cycle   1 NSaved=   1.
 NSaved= 1 IEnMin= 1 EnMin= -311.521191018180     IErMin= 1 ErrMin= 7.78D-03
 ErrMax= 7.78D-03  0.00D+00 EMaxC= 1.00D-01 BMatC= 1.97D-03 BMatP= 1.97D-03
 IDIUse=3 WtCom= 9.22D-01 WtEn= 7.78D-02
 Coeff-Com:  0.100D+01
 Coeff-En:   0.100D+01
 Coeff:      0.100D+01
 RMSDP=6.42D-03 MaxDP=9.82D-02              OVMax= 0.00D+00

 Cycle   2  Pass 1  IDiag  1:
 E= -311.515824069377     Delta-E=        0.005366948803 Rises=F Damp=F
 -------------------------------------------------------------------------
 Computing the density matrix at cycle:                     2
 -------------------------------------------------------------------------
 MULLER method
 Integration of the density matrix on the complex plane has needed   16 points
 Integration of the density matrix on the complex plane has needed   32 points
 Integration of the density matrix on the complex plane has needed   32 points
 Integration of the density matrix on the complex plane has needed   32 points
 Integration of the density matrix on the complex plane has needed   32 points
 Integration of the density matrix on the complex plane has needed   32 points
 -----------------------------------------------
 Fermi energy=  -5.05461  +/-  0.00000
 
 Number of alpha electrons:   11.00000
 Number of beta electrons:    11.00000
 Total number of electrons:    22.00000
 -----------------------------------------------
 RMSDP=1.20D-04 MaxDP=3.72D-03 DE= 5.37D-03 OVMax= 0.00D+00

 Cycle   3  Pass 1  IDiag  1:
 E= -311.515171939503     Delta-E=        0.000652129874 Rises=F Damp=F
 -------------------------------------------------------------------------
 Computing the density matrix at cycle:                     3
 -------------------------------------------------------------------------
 MULLER method
 Integration of the density matrix on the complex plane has needed   32 points
 Integration of the density matrix on the complex plane has needed   32 points
 Integration of the density matrix on the complex plane has needed   16 points
 Integration of the density matrix on the complex plane has needed   32 points
 Integration of the density matrix on the complex plane has needed   32 points
 -----------------------------------------------
 Fermi energy=  -5.05790  +/-  0.00008
 
 Number of alpha electrons:   11.00000
 Number of beta electrons:    11.00000
 Total number of electrons:    22.00000
 -----------------------------------------------
 RMSDP=1.10D-04 MaxDP=3.64D-03 DE= 6.52D-04 OVMax= 0.00D+00

 Cycle   4  Pass 1  IDiag  1:
 E= -311.513742702397     Delta-E=        0.001429237107 Rises=F Damp=F
 -------------------------------------------------------------------------
 Computing the density matrix at cycle:                     4
 -------------------------------------------------------------------------
 MULLER method
 Integration of the density matrix on the complex plane has needed   32 points
 Integration of the density matrix on the complex plane has needed   32 points
 Integration of the density matrix on the complex plane has needed   16 points
 Integration of the density matrix on the complex plane has needed   32 points
 Integration of the density matrix on the complex plane has needed   32 points
 -----------------------------------------------
 Fermi energy=  -5.06624  +/-  0.00018
 
 Number of alpha electrons:   11.00000
 Number of beta electrons:    11.00000
 Total number of electrons:    22.00000
 -----------------------------------------------
 Pulay kick .............
 RMSDP=3.40D-03 MaxDP=1.10D-01 DE= 1.43D-03 OVMax= 0.00D+00

 Cycle   5  Pass 1  IDiag  1:
 E= -311.479738845471     Delta-E=        0.034003856925 Rises=F Damp=F
 -------------------------------------------------------------------------
 Computing the density matrix at cycle:                     5
 -------------------------------------------------------------------------
 MULLER method
 Integration of the density matrix on the complex plane has needed   16 points
 Integration of the density matrix on the complex plane has needed   32 points
 Integration of the density matrix on the complex plane has needed   32 points
 Integration of the density matrix on the complex plane has needed   16 points
 Integration of the density matrix on the complex plane has needed   16 points
 Integration of the density matrix on the complex plane has needed   16 points
 -----------------------------------------------
 Fermi energy=  -5.25593  +/-  0.00073
 
 Number of alpha electrons:   11.00000
 Number of beta electrons:    11.00000
 Total number of electrons:    22.00000
 -----------------------------------------------
 RMSDP=1.19D-04 MaxDP=7.10D-03 DE= 3.40D-02 OVMax= 0.00D+00

 Cycle   6  Pass 1  IDiag  1:
 E= -311.477448358442     Delta-E=        0.002290487029 Rises=F Damp=F
 -------------------------------------------------------------------------
 Computing the density matrix at cycle:                     6
 -------------------------------------------------------------------------
 MULLER method
 Integration of the density matrix on the complex plane has needed   32 points
 Integration of the density matrix on the complex plane has needed   16 points
 Integration of the density matrix on the complex plane has needed   16 points
 Integration of the density matrix on the complex plane has needed   32 points
 Integration of the density matrix on the complex plane has needed   32 points
 -----------------------------------------------
 Fermi energy=  -5.27926  +/-  0.00025
 
 Number of alpha electrons:   11.00000
 Number of beta electrons:    11.00000
 Total number of electrons:    22.00000
 -----------------------------------------------
 RMSDP=6.67D-05 MaxDP=2.97D-03 DE= 2.29D-03 OVMax= 0.00D+00

 Cycle   7  Pass 1  IDiag  1:
 E= -311.477405751464     Delta-E=        0.000042606979 Rises=F Damp=F
 -------------------------------------------------------------------------
 Computing the density matrix at cycle:                     7
 -------------------------------------------------------------------------
 MULLER method
 Integration of the density matrix on the complex plane has needed  128 points
 Integration of the density matrix on the complex plane has needed   32 points
 Integration of the density matrix on the complex plane has needed  128 points
 Integration of the density matrix on the complex plane has needed   32 points
 Integration of the density matrix on the complex plane has needed   32 points
 Integration of the density matrix on the complex plane has needed   32 points
 -----------------------------------------------
 Fermi energy=  -5.28774  +/-  0.00000
 
 Number of alpha electrons:   11.00000
 Number of beta electrons:    11.00000
 Total number of electrons:    22.00000
 -----------------------------------------------
 RMSDP=7.20D-05 MaxDP=3.71D-03 DE= 4.26D-05 OVMax= 0.00D+00

 Cycle   8  Pass 1  IDiag  1:
 E= -311.476570142253     Delta-E=        0.000835609211 Rises=F Damp=F
 -------------------------------------------------------------------------
 Computing the density matrix at cycle:                     8
 -------------------------------------------------------------------------
 MULLER method
 Integration of the density matrix on the complex plane has needed   32 points
 Integration of the density matrix on the complex plane has needed   32 points
 Integration of the density matrix on the complex plane has needed   16 points
 Integration of the density matrix on the complex plane has needed   32 points
 Integration of the density matrix on the complex plane has needed   32 points
 Integration of the density matrix on the complex plane has needed   32 points
 -----------------------------------------------
 Fermi energy=  -5.29914  +/-  0.00000
 
 Number of alpha electrons:   11.00000
 Number of beta electrons:    11.00000
 Total number of electrons:    22.00000
 -----------------------------------------------
 RMSDP=5.16D-05 MaxDP=2.23D-03 DE= 8.36D-04 OVMax= 0.00D+00

 Cycle   9  Pass 1  IDiag  1:
 E= -311.476490004870     Delta-E=        0.000080137382 Rises=F Damp=F
 -------------------------------------------------------------------------
 Computing the density matrix at cycle:                     9
 -------------------------------------------------------------------------
 MULLER method
 Integration of the density matrix on the complex plane has needed  128 points
 Integration of the density matrix on the complex plane has needed   32 points
 Integration of the density matrix on the complex plane has needed  128 points
 Integration of the density matrix on the complex plane has needed   32 points
 Integration of the density matrix on the complex plane has needed   32 points
 Integration of the density matrix on the complex plane has needed   32 points
 -----------------------------------------------
 Fermi energy=  -5.30497  +/-  0.00000
 
 Number of alpha electrons:   11.00000
 Number of beta electrons:    11.00000
 Total number of electrons:    22.00000
 -----------------------------------------------
 Pulay kick .............
 RMSDP=4.55D-04 MaxDP=1.92D-02 DE= 8.01D-05 OVMax= 0.00D+00

 Cycle  10  Pass 1  IDiag  1:
 E= -311.476410239457     Delta-E=        0.000079765413 Rises=F Damp=F
 -------------------------------------------------------------------------
 Computing the density matrix at cycle:                    10
 -------------------------------------------------------------------------
 MULLER method
 Integration of the density matrix on the complex plane has needed   32 points
 Integration of the density matrix on the complex plane has needed   32 points
 Integration of the density matrix on the complex plane has needed   16 points
 Integration of the density matrix on the complex plane has needed   32 points
 Integration of the density matrix on the complex plane has needed   32 points
 Integration of the density matrix on the complex plane has needed   32 points
 -----------------------------------------------
 Fermi energy=  -5.33291  +/-  0.00000
 
 Number of alpha electrons:   11.00000
 Number of beta electrons:    11.00000
 Total number of electrons:    22.00000
 -----------------------------------------------
 RMSDP=9.78D-06 MaxDP=5.33D-04 DE= 7.98D-05 OVMax= 0.00D+00

 SCF Done:  E(RS-VWN) =  -311.476410239     A.U. after   10 cycles
            NFock= 10  Conv=0.98D-05     -V/T= 2.1492
 KE= 2.710446159073D+02 PE=-1.357853032106D+03 EE= 5.083098164777D+02
 -------------------------------------------------------------------------
 Computing the density matrix at cycle:                  1000
 -------------------------------------------------------------------------
 MULLER method
 Integration of the density matrix on the complex plane has needed    8 points
 Integration of the density matrix on the complex plane has needed   32 points
 Integration of the density matrix on the complex plane has needed    8 points
 Integration of the density matrix on the complex plane has needed   32 points
 Integration of the density matrix on the complex plane has needed   32 points
 -----------------------------------------------
 Fermi energy=  -5.33291  +/-  0.00000
 
 Number of alpha electrons:   11.00000
 Number of beta electrons:    11.00000
 Total number of electrons:    22.00000
 -----------------------------------------------
 
 ****************************************** 
 *                                        * 
 *        ANT.G09 final analysis          * 
 *                                        * 
 ****************************************** 
 
 -------------------------------------
 ---  Self-consistent Hamiltonian  ---
 -------------------------------------
 ---------
 Left lead
 ---------
 Atom:   1   -8.019097
 Atom:   2   -7.882597
 Atom:   3   -7.870705
 Atom:   4   -7.743615
 ----------
 Right lead
 ----------
 Atom:   5   -7.792161
 Atom:   6   -7.755112
 Atom:   7   -7.733172
 Atom:   8   -7.833512
 
 --------------------------------
 --- Calculating Transmission ---
 ---  (and DOS if required)   ---
 --------------------------------
 
 *******************************
 *    Initializing Lead No.                      1
 *******************************
Searching optimum Emin such that DOS integrates to zero ...
GauLeg quadrature converged after   63 steps.
 EMin =   -25.0292968750000      -2.674943926583850E-006
Searching optimum EMax such that the DOS integrates to the total spectral weight in the unit cell ...
GauLeg quadrature converged after   31 steps.
 EMax =    35.0292968750000        53.1485985851864     
GauLeg quadrature converged after   31 steps.
 EMax =    45.0292968750000        53.3947896672910     
GauLeg quadrature converged after   31 steps.
 EMax =    55.0292968750000        53.5703808990189     
GauLeg quadrature converged after   31 steps.
 EMax =    65.0292968750000        53.7255254158172     
GauLeg quadrature converged after   31 steps.
 EMax =    75.0292968750000        53.9545317617063     
 EMin=  -35.0292968750000        EMax=   75.0292968750000     
 Searching Fermi energy...
 ChargeOffset   33.0000000000000     
 Bisec Method
GauLeg quadrature converged after   15 steps.
GauLeg quadrature converged after    3 steps.
GauLeg quadrature converged after   15 steps.
GauLeg quadrature converged after   15 steps.
GauLeg quadrature converged after   15 steps.
GauLeg quadrature converged after   31 steps.
GauLeg quadrature converged after   31 steps.
GauLeg quadrature converged after   31 steps.
GauLeg quadrature converged after   31 steps.
GauLeg quadrature converged after   15 steps.
GauLeg quadrature converged after   63 steps.
GauLeg quadrature converged after  127 steps.
GauLeg quadrature converged after   63 steps.
EFermi in bulk electrode   1 =   -5.31133
 Lead Hamiltonian shifted by -EFermi =    5.31132698059082     
 *******************************
 *    Initializing Lead No.                      2
 *******************************
Searching optimum Emin such that DOS integrates to zero ...
GauLeg quadrature converged after   63 steps.
 EMin =   -25.0195312500000      -5.821479875933733E-008
Searching optimum EMax such that the DOS integrates to the total spectral weight in the unit cell ...
GauLeg quadrature converged after   63 steps.
 EMax =    35.0195312500000        53.0970478563938     
GauLeg quadrature converged after   31 steps.
 EMax =    45.0195312500000        53.9985391098915     
 EMin=  -35.0195312500000        EMax=   45.0195312500000     
 Searching Fermi energy...
 ChargeOffset   33.0000000000000     
 Bisec Method
GauLeg quadrature converged after   15 steps.
GauLeg quadrature converged after    3 steps.
GauLeg quadrature converged after   15 steps.
GauLeg quadrature converged after   15 steps.
GauLeg quadrature converged after   31 steps.
GauLeg quadrature converged after   31 steps.
GauLeg quadrature converged after   15 steps.
GauLeg quadrature converged after   63 steps.
GauLeg quadrature converged after   31 steps.
GauLeg quadrature converged after   31 steps.
GauLeg quadrature converged after   31 steps.
GauLeg quadrature converged after   31 steps.
EFermi in bulk electrode   2 =   -5.31754
 Lead Hamiltonian shifted by -EFermi =    5.31753540039062     
 MULLER method
 Integration of the density matrix on the complex plane has needed   32 points
 Integration of the density matrix on the complex plane has needed   16 points
 Integration of the density matrix on the complex plane has needed   32 points
 Integration of the density matrix on the complex plane has needed   16 points
 Integration of the density matrix on the complex plane has needed   16 points
 -----------------------------------------------
 Fermi energy=  -5.33030  +/-  0.00002
 
 Number of alpha electrons:   11.00000
 Number of beta electrons:    11.00000
 Total number of electrons:    22.00000
 -----------------------------------------------
 Warning in Dyson selfconsistency
 -------------------------------------
 ---  Mulliken population analysis ---
 -------------------------------------
 ----------------------
 Charges in electrode 1
 ----------------------
 Atom:   1  El.dens: 10.9520
 Atom:   2  El.dens: 10.7358
 Atom:   3  El.dens: 11.0840
 Atom:   4  El.dens: 11.0854
 ---------------------------------------------------------
 Total num. of electrons in electrode 1:   43.8572642947983     
 ---------------------------------------------------------
 ----------------------------------------------------
 Total num. of electrons in molecule:  0.000000000000000E+000
 ----------------------------------------------------
 ----------------------
 Charges in electrode 2
 ----------------------
 Atom:   5  El.dens: 10.9146
 Atom:   6  El.dens: 10.9157
 Atom:   7  El.dens: 11.0472
 Atom:   8  El.dens: 10.9715
 ---------------------------------------------------------
 Total num. of electrons in electrode 2:   43.8489931753072     
 ---------------------------------------------------------
  ----------------- End of ANT.G09 ------------------- 
 Leave Link  502 at Fri Jul  8 12:52:34 2022, MaxMem=   131072000 cpu:        30.2
 (Enter /home/palacios/Gaussian09/intel/v.D01/g09/l601.exe)
 Copying SCF densities to generalized density rwf, IOpCl= 0 IROHF=0.

 **********************************************************************

            Population analysis using the SCF density.

 **********************************************************************

 Orbital symmetries:
       Occupied  (SG) (SG) (PI) (PI) (PI) (PI) (SG) (SG) (PI) (PI)
                 (DLTA) (DLTA) (PI) (PI) (DLTA) (DLTA) (DLTA) (DLTA)
                 (DLTA) (DLTA) (PI) (PI) (SG) (DLTA) (DLTA) (DLTA)
                 (DLTA) (DLTA) (DLTA) (DLTA) (DLTA) (PI) (PI) (PI)
                 (PI) (PI) (PI) (SG) (SG) (SG) (SG) (SG) (SG) (SG)
       Virtual   (SG) (SG) (SG) (SG) (PI) (PI) (PI) (PI) (PI) (PI)
                 (SG) (PI) (PI) (PI) (PI) (PI) (PI) (SG) (PI) (PI)
                 (PI) (PI) (SG) (SG) (SG) (SG) (SG) (SG)
 The electronic state is 1-SG.
 Alpha  occ. eigenvalues --   -0.46591  -0.45772  -0.45125  -0.45125  -0.44672
 Alpha  occ. eigenvalues --   -0.44672  -0.44655  -0.44536  -0.44039  -0.44039
 Alpha  occ. eigenvalues --   -0.43886  -0.43886  -0.43846  -0.43846  -0.43796
 Alpha  occ. eigenvalues --   -0.43796  -0.43680  -0.43680  -0.43581  -0.43581
 Alpha  occ. eigenvalues --   -0.43383  -0.43383  -0.43306  -0.43134  -0.43134
 Alpha  occ. eigenvalues --   -0.43031  -0.43031  -0.43026  -0.43026  -0.42941
 Alpha  occ. eigenvalues --   -0.42941  -0.42855  -0.42855  -0.42745  -0.42745
 Alpha  occ. eigenvalues --   -0.42593  -0.42593  -0.42393  -0.42119  -0.41997
 Alpha  occ. eigenvalues --   -0.24498  -0.24333  -0.22453  -0.22245
 Alpha virt. eigenvalues --   -0.19615  -0.16099  -0.15527  -0.10861  -0.09045
 Alpha virt. eigenvalues --   -0.09045  -0.08027  -0.08027  -0.07297  -0.07297
 Alpha virt. eigenvalues --   -0.06426  -0.06382  -0.06382  -0.04208  -0.04208
 Alpha virt. eigenvalues --   -0.02322  -0.02322  -0.01342  -0.01228  -0.01228
 Alpha virt. eigenvalues --    0.02221   0.02221   0.15069   0.36653   0.54521
 Alpha virt. eigenvalues --    0.86657   1.11695   1.16441
          Condensed to atoms (all electrons):
               1          2          3          4          5          6
     1  Ag  10.769049   0.184141  -0.000624  -0.000019   0.000000   0.000000
     2  Ag   0.184141  10.798427  -0.001436  -0.000779  -0.000058  -0.000001
     3  Ag  -0.000624  -0.001436  10.934936   0.221151  -0.068370  -0.006238
     4  Ag  -0.000019  -0.000779   0.221151  11.000135  -0.004074  -0.114388
     5  Ag   0.000000  -0.000058  -0.068370  -0.004074  11.113815   0.015713
     6  Ag   0.000000  -0.000001  -0.006238  -0.114388   0.015713  11.180511
     7  Ag   0.000000   0.000000  -0.000119  -0.010546  -0.135830  -0.021650
     8  Ag   0.000000   0.000000   0.000000  -0.000289  -0.012652  -0.137196
               7          8
     1  Ag   0.000000   0.000000
     2  Ag   0.000000   0.000000
     3  Ag  -0.000119   0.000000
     4  Ag  -0.010546  -0.000289
     5  Ag  -0.135830  -0.012652
     6  Ag  -0.021650  -0.137196
     7  Ag  11.164117   0.040265
     8  Ag   0.040265  11.054201
 Mulliken charges:
               1
     1  Ag   0.047453
     2  Ag   0.019707
     3  Ag  -0.079298
     4  Ag  -0.091191
     5  Ag   0.091456
     6  Ag   0.083250
     7  Ag  -0.036236
     8  Ag   0.055671
 Sum of Mulliken charges =   0.09081
 Mulliken charges with hydrogens summed into heavy atoms:
               1
     1  Ag   0.047453
     2  Ag   0.019707
     3  Ag  -0.079298
     4  Ag  -0.091191
     5  Ag   0.091456
     6  Ag   0.083250
     7  Ag  -0.036236
     8  Ag   0.055671
 Electronic spatial extent (au):  <R**2>=          19871.2944
 Charge=              0.0908 electrons
 Dipole moment (field-independent basis, Debye):
    X=              0.0000    Y=              0.0000    Z=              6.2665  Tot=              6.2665
 Quadrupole moment (field-independent basis, Debye-Ang):
   XX=           -132.9313   YY=           -132.9313   ZZ=            -70.5015
   XY=              0.0000   XZ=              0.0000   YZ=              0.0000
 Traceless Quadrupole moment (field-independent basis, Debye-Ang):
   XX=            -20.8099   YY=            -20.8099   ZZ=             41.6199
   XY=              0.0000   XZ=              0.0000   YZ=              0.0000
 Octapole moment (field-independent basis, Debye-Ang**2):
  XXX=              0.0000  YYY=              0.0000  ZZZ=           1156.1704  XYY=              0.0000
  XXY=              0.0000  XXZ=              8.4326  XZZ=              0.0000  YZZ=              0.0000
  YYZ=              8.4326  XYZ=              0.0000
 Hexadecapole moment (field-independent basis, Debye-Ang**3):
 XXXX=           -250.0033 YYYY=           -250.0033 ZZZZ=         -38415.7452 XXXY=              0.0000
 XXXZ=              0.0000 YYYX=              0.0000 YYYZ=              0.0000 ZZZX=              0.0000
 ZZZY=              0.0000 XXYY=            -83.3344 XXZZ=          -8461.6851 YYZZ=          -8461.6851
 XXYZ=              0.0000 YYXZ=              0.0000 ZZXY=              0.0000
 N-N= 2.670221894816D+02 E-N=-1.357861131580D+03  KE= 2.710446159073D+02
 Symmetry A1   KE= 1.088931891676D+02
 Symmetry A2   KE= 5.403424268907D+01
 Symmetry B1   KE= 5.405859202535D+01
 Symmetry B2   KE= 5.405859202535D+01
 No NMR shielding tensors so no spin-rotation constants.
 Leave Link  601 at Fri Jul  8 12:52:34 2022, MaxMem=   131072000 cpu:         0.0
 (Enter /home/palacios/Gaussian09/intel/v.D01/g09/l9999.exe)
 1\1\GINC-COMPUTE-1-4\SP\RSVWN\Gen\Ag8\PALACIOS\08-Jul-2022\0\\#p lsda/
 gen pseudo=read Scf=(conver=5,nodamp,dsymm)\\Ag8-chain\\0,1\Ag,0,0.,0.
 ,0.\Ag,0,0.,0.,3.\Ag,0,0.,0.,9.\Ag,0,0.,0.,12.\Ag,0,0.,0.,15.\Ag,0,0.,
 0.,18.\Ag,0,0.,0.,21.\Ag,0,0.,0.,24.\\Version=AS64L-G09RevD.01\State=1
 -SG\HF=-311.4764102\RMSD=9.782e-06\Dipole=0.,0.,-2.4654244\Quadrupole=
 -15.4716838,-15.4716838,30.9433675,0.,0.,0.\PG=C*V [C*(Ag1Ag1Ag1Ag1Ag1
 Ag1Ag1Ag1)]\\@


 MISERY NO LONGER LOVES COMPANY.  NOWADAYS IT INSISTS ON IT.

                                              -- BAKER'S LAW
 Job cpu time:       0 days  0 hours  0 minutes 31.6 seconds.
 File lengths (MBytes):  RWF=      5 Int=      0 D2E=      0 Chk=      1 Scr=      1
 Normal termination of Gaussian 09 at Fri Jul  8 12:52:34 2022.
