 Entering Gaussian System, Link 0=g09
 Input=Ag9-Ag4-Ag-Ag-Ag4-Ag9.gjf
 Output=Ag9-Ag4-Ag-Ag-Ag4-Ag9.log
 Initial command:
 /home/palacios/Gaussian09/intel/v.D01/g09/l1.exe "/scratch/palacios/Ag9-Ag4-Ag-Ag-Ag4-Ag9-203009/Gau-7653.inp" -scrdir="/scratch/palacios/Ag9-Ag4-Ag-Ag-Ag4-Ag9-203009/"
 Entering Link 1 = /home/palacios/Gaussian09/intel/v.D01/g09/l1.exe PID=      7654.
  
 Copyright (c) 1988,1990,1992,1993,1995,1998,2003,2009,2013,
            Gaussian, Inc.  All Rights Reserved.
  
 This is part of the Gaussian(R) 09 program.  It is based on
 the Gaussian(R) 03 system (copyright 2003, Gaussian, Inc.),
 the Gaussian(R) 98 system (copyright 1998, Gaussian, Inc.),
 the Gaussian(R) 94 system (copyright 1995, Gaussian, Inc.),
 the Gaussian 92(TM) system (copyright 1992, Gaussian, Inc.),
 the Gaussian 90(TM) system (copyright 1990, Gaussian, Inc.),
 the Gaussian 88(TM) system (copyright 1988, Gaussian, Inc.),
 the Gaussian 86(TM) system (copyright 1986, Carnegie Mellon
 University), and the Gaussian 82(TM) system (copyright 1983,
 Carnegie Mellon University). Gaussian is a federally registered
 trademark of Gaussian, Inc.
  
 This software contains proprietary and confidential information,
 including trade secrets, belonging to Gaussian, Inc.
  
 This software is provided under written license and may be
 used, copied, transmitted, or stored only in accord with that
 written license.
  
 The following legend is applicable only to US Government
 contracts under FAR:
  
                    RESTRICTED RIGHTS LEGEND
  
 Use, reproduction and disclosure by the US Government is
 subject to restrictions as set forth in subparagraphs (a)
 and (c) of the Commercial Computer Software - Restricted
 Rights clause in FAR 52.227-19.
  
 Gaussian, Inc.
 340 Quinnipiac St., Bldg. 40, Wallingford CT 06492
  
  
 ---------------------------------------------------------------
 Warning -- This program may not be used in any manner that
 competes with the business of Gaussian, Inc. or will provide
 assistance to any competitor of Gaussian, Inc.  The licensee
 of this program is prohibited from giving any competitor of
 Gaussian, Inc. access to this program.  By using this program,
 the user acknowledges that Gaussian, Inc. is engaged in the
 business of creating and licensing software in the field of
 computational chemistry and represents and warrants to the
 licensee that it is not a competitor of Gaussian, Inc. and that
 it will not use this program in any manner prohibited above.
 ---------------------------------------------------------------
  

 Cite this work as:
 Gaussian 09, Revision D.01,
 M. J. Frisch, G. W. Trucks, H. B. Schlegel, G. E. Scuseria, 
 M. A. Robb, J. R. Cheeseman, G. Scalmani, V. Barone, B. Mennucci, 
 G. A. Petersson, H. Nakatsuji, M. Caricato, X. Li, H. P. Hratchian, 
 A. F. Izmaylov, J. Bloino, G. Zheng, J. L. Sonnenberg, M. Hada, 
 M. Ehara, K. Toyota, R. Fukuda, J. Hasegawa, M. Ishida, T. Nakajima, 
 Y. Honda, O. Kitao, H. Nakai, T. Vreven, J. A. Montgomery, Jr., 
 J. E. Peralta, F. Ogliaro, M. Bearpark, J. J. Heyd, E. Brothers, 
 K. N. Kudin, V. N. Staroverov, T. Keith, R. Kobayashi, J. Normand, 
 K. Raghavachari, A. Rendell, J. C. Burant, S. S. Iyengar, J. Tomasi, 
 M. Cossi, N. Rega, J. M. Millam, M. Klene, J. E. Knox, J. B. Cross, 
 V. Bakken, C. Adamo, J. Jaramillo, R. Gomperts, R. E. Stratmann, 
 O. Yazyev, A. J. Austin, R. Cammi, C. Pomelli, J. W. Ochterski, 
 R. L. Martin, K. Morokuma, V. G. Zakrzewski, G. A. Voth, 
 P. Salvador, J. J. Dannenberg, S. Dapprich, A. D. Daniels, 
 O. Farkas, J. B. Foresman, J. V. Ortiz, J. Cioslowski, 
 and D. J. Fox, Gaussian, Inc., Wallingford CT, 2013.
 
 ******************************************
 Gaussian 09:  ES64L-G09RevD.01 24-Apr-2013
                29-Dec-2020 
 ******************************************
 %mem=2000MB
 %NProcShared=8
 Will use up to    8 processors via shared memory.
 %Subst L101 .
 %Subst L502 .
 ---------------------------------------------------
 #p lsda/gen pseudo=read Scf=(conver=5,dsymm,nodamp)
 ---------------------------------------------------
 1/38=1/1;
 2/12=2,17=6,18=5,40=1/2;
 3/5=7,11=2,16=1,17=8,25=1,30=1,74=205/1,2,3;
 4//1;
 5/5=2,6=5,17=200,18=-2,38=5/2;
 6/7=2,8=2,9=2,10=2,28=1/1;
 99/5=1,9=1/99;
 Leave Link    1 at Tue Dec 29 20:21:03 2020, MaxMem=   262144000 cpu:         0.3
 (Enter ./l101.exe)
 ---------------------
 Ag9-Ag4-Ag-Ag-Ag4-Ag9
 ---------------------
 Symbolic Z-matrix:
 Charge =  0 Multiplicity = 1
 Ag                   -4.        0.       -6. 
 Ag                    0.        4.       -6. 
 Ag                    0.        0.       -6. 
 Ag                   -2.        2.       -6. 
 Ag                   -2.       -2.       -6. 
 Ag                    2.        2.       -6. 
 Ag                    0.       -4.       -6. 
 Ag                    2.       -2.       -6. 
 Ag                    4.        0.       -6. 
 Ag                   -2.        0.       -4. 
 Ag                    0.        2.       -4. 
 Ag                    0.       -2.       -4. 
 Ag                    2.        0.       -4. 
 Ag                    0.        0.       -2. 
 Ag                    0.        0.        1. 
 Ag                   -2.        0.        3. 
 Ag                    0.        2.        3. 
 Ag                    0.       -2.        3. 
 Ag                    2.        0.        3. 
 Ag                   -4.        0.        5. 
 Ag                   -2.        2.        5. 
 Ag                    0.        4.        5. 
 Ag                   -2.       -2.        5. 
 Ag                    2.        2.        5. 
 Ag                    2.       -2.        5. 
 Ag                    0.        0.        5. 
 Ag                    0.       -4.        5. 
 Ag                    4.        0.        5. 
 
 NAtoms=     28 NQM=       28 NQMF=       0 NMMI=      0 NMMIF=      0
                NMic=       0 NMicF=      0.
                    Isotopes and Nuclear Properties:
 (Nuclear quadrupole moments (NQMom) in fm**2, nuclear magnetic moments (NMagM)
  in nuclear magnetons)

  Atom         1           2           3           4           5           6           7           8           9          10
 IAtWgt=         107         107         107         107         107         107         107         107         107         107
 AtmWgt= 106.9050900 106.9050900 106.9050900 106.9050900 106.9050900 106.9050900 106.9050900 106.9050900 106.9050900 106.9050900
 NucSpn=           1           1           1           1           1           1           1           1           1           1
 AtZEff=   0.0000000   0.0000000   0.0000000   0.0000000   0.0000000   0.0000000   0.0000000   0.0000000   0.0000000   0.0000000
 NQMom=    0.0000000   0.0000000   0.0000000   0.0000000   0.0000000   0.0000000   0.0000000   0.0000000   0.0000000   0.0000000
 NMagM=   -0.1135700  -0.1135700  -0.1135700  -0.1135700  -0.1135700  -0.1135700  -0.1135700  -0.1135700  -0.1135700  -0.1135700
 AtZNuc=  47.0000000  47.0000000  47.0000000  47.0000000  47.0000000  47.0000000  47.0000000  47.0000000  47.0000000  47.0000000

  Atom        11          12          13          14          15          16          17          18          19          20
 IAtWgt=         107         107         107         107         107         107         107         107         107         107
 AtmWgt= 106.9050900 106.9050900 106.9050900 106.9050900 106.9050900 106.9050900 106.9050900 106.9050900 106.9050900 106.9050900
 NucSpn=           1           1           1           1           1           1           1           1           1           1
 AtZEff=   0.0000000   0.0000000   0.0000000   0.0000000   0.0000000   0.0000000   0.0000000   0.0000000   0.0000000   0.0000000
 NQMom=    0.0000000   0.0000000   0.0000000   0.0000000   0.0000000   0.0000000   0.0000000   0.0000000   0.0000000   0.0000000
 NMagM=   -0.1135700  -0.1135700  -0.1135700  -0.1135700  -0.1135700  -0.1135700  -0.1135700  -0.1135700  -0.1135700  -0.1135700
 AtZNuc=  47.0000000  47.0000000  47.0000000  47.0000000  47.0000000  47.0000000  47.0000000  47.0000000  47.0000000  47.0000000

  Atom        21          22          23          24          25          26          27          28
 IAtWgt=         107         107         107         107         107         107         107         107
 AtmWgt= 106.9050900 106.9050900 106.9050900 106.9050900 106.9050900 106.9050900 106.9050900 106.9050900
 NucSpn=           1           1           1           1           1           1           1           1
 AtZEff=   0.0000000   0.0000000   0.0000000   0.0000000   0.0000000   0.0000000   0.0000000   0.0000000
 NQMom=    0.0000000   0.0000000   0.0000000   0.0000000   0.0000000   0.0000000   0.0000000   0.0000000
 NMagM=   -0.1135700  -0.1135700  -0.1135700  -0.1135700  -0.1135700  -0.1135700  -0.1135700  -0.1135700
 AtZNuc=  47.0000000  47.0000000  47.0000000  47.0000000  47.0000000  47.0000000  47.0000000  47.0000000
 Leave Link  101 at Tue Dec 29 20:21:03 2020, MaxMem=   262144000 cpu:         0.5
 (Enter /home/palacios/Gaussian09/intel/v.D01/g09/l202.exe)
                          Input orientation:                          
 ---------------------------------------------------------------------
 Center     Atomic      Atomic             Coordinates (Angstroms)
 Number     Number       Type             X           Y           Z
 ---------------------------------------------------------------------
      1         47           0       -4.000000    0.000000   -6.000000
      2         47           0        0.000000    4.000000   -6.000000
      3         47           0        0.000000    0.000000   -6.000000
      4         47           0       -2.000000    2.000000   -6.000000
      5         47           0       -2.000000   -2.000000   -6.000000
      6         47           0        2.000000    2.000000   -6.000000
      7         47           0        0.000000   -4.000000   -6.000000
      8         47           0        2.000000   -2.000000   -6.000000
      9         47           0        4.000000    0.000000   -6.000000
     10         47           0       -2.000000    0.000000   -4.000000
     11         47           0        0.000000    2.000000   -4.000000
     12         47           0        0.000000   -2.000000   -4.000000
     13         47           0        2.000000    0.000000   -4.000000
     14         47           0        0.000000    0.000000   -2.000000
     15         47           0        0.000000    0.000000    1.000000
     16         47           0       -2.000000    0.000000    3.000000
     17         47           0        0.000000    2.000000    3.000000
     18         47           0        0.000000   -2.000000    3.000000
     19         47           0        2.000000    0.000000    3.000000
     20         47           0       -4.000000    0.000000    5.000000
     21         47           0       -2.000000    2.000000    5.000000
     22         47           0        0.000000    4.000000    5.000000
     23         47           0       -2.000000   -2.000000    5.000000
     24         47           0        2.000000    2.000000    5.000000
     25         47           0        2.000000   -2.000000    5.000000
     26         47           0        0.000000    0.000000    5.000000
     27         47           0        0.000000   -4.000000    5.000000
     28         47           0        4.000000    0.000000    5.000000
 ---------------------------------------------------------------------
                    Distance matrix (angstroms):
                    1          2          3          4          5
     1  Ag   0.000000
     2  Ag   5.656854   0.000000
     3  Ag   4.000000   4.000000   0.000000
     4  Ag   2.828427   2.828427   2.828427   0.000000
     5  Ag   2.828427   6.324555   2.828427   4.000000   0.000000
     6  Ag   6.324555   2.828427   2.828427   4.000000   5.656854
     7  Ag   5.656854   8.000000   4.000000   6.324555   2.828427
     8  Ag   6.324555   6.324555   2.828427   5.656854   4.000000
     9  Ag   8.000000   5.656854   4.000000   6.324555   6.324555
    10  Ag   2.828427   4.898979   2.828427   2.828427   2.828427
    11  Ag   4.898979   2.828427   2.828427   2.828427   4.898979
    12  Ag   4.898979   6.324555   2.828427   4.898979   2.828427
    13  Ag   6.324555   4.898979   2.828427   4.898979   4.898979
    14  Ag   5.656854   5.656854   4.000000   4.898979   4.898979
    15  Ag   8.062258   8.062258   7.000000   7.549834   7.549834
    16  Ag   9.219544  10.049876   9.219544   9.219544   9.219544
    17  Ag  10.049876   9.219544   9.219544   9.219544  10.049876
    18  Ag  10.049876  10.816654   9.219544  10.049876   9.219544
    19  Ag  10.816654  10.049876   9.219544  10.049876  10.049876
    20  Ag  11.000000  12.369317  11.704700  11.357817  11.357817
    21  Ag  11.357817  11.357817  11.357817  11.000000  11.704700
    22  Ag  12.369317  11.000000  11.704700  11.357817  12.688578
    23  Ag  11.357817  12.688578  11.357817  11.704700  11.000000
    24  Ag  12.688578  11.357817  11.357817  11.704700  12.369317
    25  Ag  12.688578  12.688578  11.357817  12.369317  11.704700
    26  Ag  11.704700  11.704700  11.000000  11.357817  11.357817
    27  Ag  12.369317  13.601471  11.704700  12.688578  11.357817
    28  Ag  13.601471  12.369317  11.704700  12.688578  12.688578
                    6          7          8          9         10
     6  Ag   0.000000
     7  Ag   6.324555   0.000000
     8  Ag   4.000000   2.828427   0.000000
     9  Ag   2.828427   5.656854   2.828427   0.000000
    10  Ag   4.898979   4.898979   4.898979   6.324555   0.000000
    11  Ag   2.828427   6.324555   4.898979   4.898979   2.828427
    12  Ag   4.898979   2.828427   2.828427   4.898979   2.828427
    13  Ag   2.828427   4.898979   2.828427   2.828427   4.000000
    14  Ag   4.898979   5.656854   4.898979   5.656854   2.828427
    15  Ag   7.549834   8.062258   7.549834   8.062258   5.385165
    16  Ag  10.049876  10.049876  10.049876  10.816654   7.000000
    17  Ag   9.219544  10.816654  10.049876  10.049876   7.549834
    18  Ag  10.049876   9.219544   9.219544  10.049876   7.549834
    19  Ag   9.219544  10.049876   9.219544   9.219544   8.062258
    20  Ag  12.688578  12.369317  12.688578  13.601471   9.219544
    21  Ag  11.704700  12.688578  12.369317  12.688578   9.219544
    22  Ag  11.357817  13.601471  12.688578  12.369317  10.049876
    23  Ag  12.369317  11.357817  11.704700  12.688578   9.219544
    24  Ag  11.000000  12.688578  11.704700  11.357817  10.049876
    25  Ag  11.704700  11.357817  11.000000  11.357817  10.049876
    26  Ag  11.357817  11.704700  11.357817  11.704700   9.219544
    27  Ag  12.688578  11.000000  11.357817  12.369317  10.049876
    28  Ag  11.357817  12.369317  11.357817  11.000000  10.816654
                   11         12         13         14         15
    11  Ag   0.000000
    12  Ag   4.000000   0.000000
    13  Ag   2.828427   2.828427   0.000000
    14  Ag   2.828427   2.828427   2.828427   0.000000
    15  Ag   5.385165   5.385165   5.385165   3.000000   0.000000
    16  Ag   7.549834   7.549834   8.062258   5.385165   2.828427
    17  Ag   7.000000   8.062258   7.549834   5.385165   2.828427
    18  Ag   8.062258   7.000000   7.549834   5.385165   2.828427
    19  Ag   7.549834   7.549834   7.000000   5.385165   2.828427
    20  Ag  10.049876  10.049876  10.816654   8.062258   5.656854
    21  Ag   9.219544  10.049876  10.049876   7.549834   4.898979
    22  Ag   9.219544  10.816654  10.049876   8.062258   5.656854
    23  Ag  10.049876   9.219544  10.049876   7.549834   4.898979
    24  Ag   9.219544  10.049876   9.219544   7.549834   4.898979
    25  Ag  10.049876   9.219544   9.219544   7.549834   4.898979
    26  Ag   9.219544   9.219544   9.219544   7.000000   4.000000
    27  Ag  10.816654   9.219544  10.049876   8.062258   5.656854
    28  Ag  10.049876  10.049876   9.219544   8.062258   5.656854
                   16         17         18         19         20
    16  Ag   0.000000
    17  Ag   2.828427   0.000000
    18  Ag   2.828427   4.000000   0.000000
    19  Ag   4.000000   2.828427   2.828427   0.000000
    20  Ag   2.828427   4.898979   4.898979   6.324555   0.000000
    21  Ag   2.828427   2.828427   4.898979   4.898979   2.828427
    22  Ag   4.898979   2.828427   6.324555   4.898979   5.656854
    23  Ag   2.828427   4.898979   2.828427   4.898979   2.828427
    24  Ag   4.898979   2.828427   4.898979   2.828427   6.324555
    25  Ag   4.898979   4.898979   2.828427   2.828427   6.324555
    26  Ag   2.828427   2.828427   2.828427   2.828427   4.000000
    27  Ag   4.898979   6.324555   2.828427   4.898979   5.656854
    28  Ag   6.324555   4.898979   4.898979   2.828427   8.000000
                   21         22         23         24         25
    21  Ag   0.000000
    22  Ag   2.828427   0.000000
    23  Ag   4.000000   6.324555   0.000000
    24  Ag   4.000000   2.828427   5.656854   0.000000
    25  Ag   5.656854   6.324555   4.000000   4.000000   0.000000
    26  Ag   2.828427   4.000000   2.828427   2.828427   2.828427
    27  Ag   6.324555   8.000000   2.828427   6.324555   2.828427
    28  Ag   6.324555   5.656854   6.324555   2.828427   2.828427
                   26         27         28
    26  Ag   0.000000
    27  Ag   4.000000   0.000000
    28  Ag   4.000000   5.656854   0.000000
 Stoichiometry    Ag28
 Framework group  D4H[C4(AgAg.AgAg),2SGV(Ag8),2SGD(Ag4)]
 Deg. of freedom     8
 Full point group                 D4H     NOp  16
 Largest Abelian subgroup         D2H     NOp   8
 Largest concise Abelian subgroup D2H     NOp   8
                         Standard orientation:                         
 ---------------------------------------------------------------------
 Center     Atomic      Atomic             Coordinates (Angstroms)
 Number     Number       Type             X           Y           Z
 ---------------------------------------------------------------------
      1         47           0        0.000000    4.000000    5.500000
      2         47           0       -4.000000    0.000000    5.500000
      3         47           0        0.000000    0.000000    5.500000
      4         47           0       -2.000000    2.000000    5.500000
      5         47           0        2.000000    2.000000    5.500000
      6         47           0       -2.000000   -2.000000    5.500000
      7         47           0        4.000000    0.000000    5.500000
      8         47           0        2.000000   -2.000000    5.500000
      9         47           0        0.000000   -4.000000    5.500000
     10         47           0        0.000000    2.000000    3.500000
     11         47           0       -2.000000    0.000000    3.500000
     12         47           0        2.000000    0.000000    3.500000
     13         47           0        0.000000   -2.000000    3.500000
     14         47           0        0.000000    0.000000    1.500000
     15         47           0        0.000000    0.000000   -1.500000
     16         47           0        0.000000    2.000000   -3.500000
     17         47           0       -2.000000    0.000000   -3.500000
     18         47           0        2.000000    0.000000   -3.500000
     19         47           0        0.000000   -2.000000   -3.500000
     20         47           0        0.000000    4.000000   -5.500000
     21         47           0       -2.000000    2.000000   -5.500000
     22         47           0       -4.000000    0.000000   -5.500000
     23         47           0        2.000000    2.000000   -5.500000
     24         47           0       -2.000000   -2.000000   -5.500000
     25         47           0        2.000000   -2.000000   -5.500000
     26         47           0        0.000000    0.000000   -5.500000
     27         47           0        4.000000    0.000000   -5.500000
     28         47           0        0.000000   -4.000000   -5.500000
 ---------------------------------------------------------------------
 Rotational constants (GHZ):      0.0211043      0.0062284      0.0062284
 Leave Link  202 at Tue Dec 29 20:21:03 2020, MaxMem=   262144000 cpu:         0.1
 (Enter /home/palacios/Gaussian09/intel/v.D01/g09/l301.exe)
 General basis read from cards:  (5D, 7F)
 Centers:       1      2      3      4      5      6      7      8      9     10
 Centers:      11     12     13     14     15     16     17     18     19     20
 Centers:      21     22     23     24     25     26     27     28
 S 3 1.00
     Exponent=  4.9810000000D-01 Coefficients= -3.2332200000D-01
     Exponent=  1.5860000000D-01 Coefficients=  4.2564500000D-01
     Exponent=  4.7100000000D-02 Coefficients=  7.9261400000D-01
 P 3 1.00
     Exponent=  7.5890000000D-01 Coefficients= -2.8534000000D-02
     Exponent=  9.0800000000D-02 Coefficients=  3.9044500000D-01
     Exponent=  2.8300000000D-02 Coefficients=  7.0070800000D-01
 D 4 1.00
     Exponent=  2.4127000000D+00 Coefficients=  3.0885300000D-01
     Exponent=  1.0153000000D+00 Coefficients=  4.5043400000D-01
     Exponent=  4.0930000000D-01 Coefficients=  3.3831000000D-01
     Exponent=  1.5030000000D-01 Coefficients=  1.2944000000D-01
 ****
 ======================================================================================================
                                       Pseudopotential Parameters
 ======================================================================================================
  Center     Atomic      Valence      Angular      Power
  Number     Number     Electrons     Momentum     of R      Exponent        Coefficient   SO-Coeffient
 ======================================================================================================
    1         47           11
                                      F and up 
                                                     2        1.0708000       -1.54570901    0.00000000
                                                     2        2.8520000       -9.91327572    0.00000000
                                                     2       11.1708002      -44.19367218    0.00000000
                                                     1       32.3418007      -21.82627869    0.00000000
                                      S - F
                                                     2        1.6540000      171.23280334    0.00000000
                                                     2        1.9916000     -307.32479858    0.00000000
                                                     2        2.6903999      280.42736816    0.00000000
                                                     2        3.7328999     -153.77388000    0.00000000
                                                     1        4.3610001       40.92211151    0.00000000
                                                     0       18.4864998        3.48360991    0.00000000
                                      P - F
                                                     2        1.2197000      123.84740448    0.00000000
                                                     2        1.4884000     -238.36637878    0.00000000
                                                     2        2.0432999      222.44552612    0.00000000
                                                     2        2.8227999     -103.42056274    0.00000000
                                                     1        4.0978999       30.84042740    0.00000000
                                                     0       15.1473999        5.18727016    0.00000000
                                      D - F
                                                     2        0.2939000       -0.09446900    0.00000000
                                                     2        0.9250000       -3.48698401    0.00000000
                                                     2        2.0978999      -38.78794098    0.00000000
                                                     2        2.5294001       34.73471451    0.00000000
                                                     1        1.0637000        9.89155388    0.00000000
                                                     0       10.9393997        7.72656393    0.00000000
    2         47           11
                                      F and up 
                                                     2        1.0708000       -1.54570901    0.00000000
                                                     2        2.8520000       -9.91327572    0.00000000
                                                     2       11.1708002      -44.19367218    0.00000000
                                                     1       32.3418007      -21.82627869    0.00000000
                                      S - F
                                                     2        1.6540000      171.23280334    0.00000000
                                                     2        1.9916000     -307.32479858    0.00000000
                                                     2        2.6903999      280.42736816    0.00000000
                                                     2        3.7328999     -153.77388000    0.00000000
                                                     1        4.3610001       40.92211151    0.00000000
                                                     0       18.4864998        3.48360991    0.00000000
                                      P - F
                                                     2        1.2197000      123.84740448    0.00000000
                                                     2        1.4884000     -238.36637878    0.00000000
                                                     2        2.0432999      222.44552612    0.00000000
                                                     2        2.8227999     -103.42056274    0.00000000
                                                     1        4.0978999       30.84042740    0.00000000
                                                     0       15.1473999        5.18727016    0.00000000
                                      D - F
                                                     2        0.2939000       -0.09446900    0.00000000
                                                     2        0.9250000       -3.48698401    0.00000000
                                                     2        2.0978999      -38.78794098    0.00000000
                                                     2        2.5294001       34.73471451    0.00000000
                                                     1        1.0637000        9.89155388    0.00000000
                                                     0       10.9393997        7.72656393    0.00000000
    3         47           11
                                      F and up 
                                                     2        1.0708000       -1.54570901    0.00000000
                                                     2        2.8520000       -9.91327572    0.00000000
                                                     2       11.1708002      -44.19367218    0.00000000
                                                     1       32.3418007      -21.82627869    0.00000000
                                      S - F
                                                     2        1.6540000      171.23280334    0.00000000
                                                     2        1.9916000     -307.32479858    0.00000000
                                                     2        2.6903999      280.42736816    0.00000000
                                                     2        3.7328999     -153.77388000    0.00000000
                                                     1        4.3610001       40.92211151    0.00000000
                                                     0       18.4864998        3.48360991    0.00000000
                                      P - F
                                                     2        1.2197000      123.84740448    0.00000000
                                                     2        1.4884000     -238.36637878    0.00000000
                                                     2        2.0432999      222.44552612    0.00000000
                                                     2        2.8227999     -103.42056274    0.00000000
                                                     1        4.0978999       30.84042740    0.00000000
                                                     0       15.1473999        5.18727016    0.00000000
                                      D - F
                                                     2        0.2939000       -0.09446900    0.00000000
                                                     2        0.9250000       -3.48698401    0.00000000
                                                     2        2.0978999      -38.78794098    0.00000000
                                                     2        2.5294001       34.73471451    0.00000000
                                                     1        1.0637000        9.89155388    0.00000000
                                                     0       10.9393997        7.72656393    0.00000000
    4         47           11
                                      F and up 
                                                     2        1.0708000       -1.54570901    0.00000000
                                                     2        2.8520000       -9.91327572    0.00000000
                                                     2       11.1708002      -44.19367218    0.00000000
                                                     1       32.3418007      -21.82627869    0.00000000
                                      S - F
                                                     2        1.6540000      171.23280334    0.00000000
                                                     2        1.9916000     -307.32479858    0.00000000
                                                     2        2.6903999      280.42736816    0.00000000
                                                     2        3.7328999     -153.77388000    0.00000000
                                                     1        4.3610001       40.92211151    0.00000000
                                                     0       18.4864998        3.48360991    0.00000000
                                      P - F
                                                     2        1.2197000      123.84740448    0.00000000
                                                     2        1.4884000     -238.36637878    0.00000000
                                                     2        2.0432999      222.44552612    0.00000000
                                                     2        2.8227999     -103.42056274    0.00000000
                                                     1        4.0978999       30.84042740    0.00000000
                                                     0       15.1473999        5.18727016    0.00000000
                                      D - F
                                                     2        0.2939000       -0.09446900    0.00000000
                                                     2        0.9250000       -3.48698401    0.00000000
                                                     2        2.0978999      -38.78794098    0.00000000
                                                     2        2.5294001       34.73471451    0.00000000
                                                     1        1.0637000        9.89155388    0.00000000
                                                     0       10.9393997        7.72656393    0.00000000
    5         47           11
                                      F and up 
                                                     2        1.0708000       -1.54570901    0.00000000
                                                     2        2.8520000       -9.91327572    0.00000000
                                                     2       11.1708002      -44.19367218    0.00000000
                                                     1       32.3418007      -21.82627869    0.00000000
                                      S - F
                                                     2        1.6540000      171.23280334    0.00000000
                                                     2        1.9916000     -307.32479858    0.00000000
                                                     2        2.6903999      280.42736816    0.00000000
                                                     2        3.7328999     -153.77388000    0.00000000
                                                     1        4.3610001       40.92211151    0.00000000
                                                     0       18.4864998        3.48360991    0.00000000
                                      P - F
                                                     2        1.2197000      123.84740448    0.00000000
                                                     2        1.4884000     -238.36637878    0.00000000
                                                     2        2.0432999      222.44552612    0.00000000
                                                     2        2.8227999     -103.42056274    0.00000000
                                                     1        4.0978999       30.84042740    0.00000000
                                                     0       15.1473999        5.18727016    0.00000000
                                      D - F
                                                     2        0.2939000       -0.09446900    0.00000000
                                                     2        0.9250000       -3.48698401    0.00000000
                                                     2        2.0978999      -38.78794098    0.00000000
                                                     2        2.5294001       34.73471451    0.00000000
                                                     1        1.0637000        9.89155388    0.00000000
                                                     0       10.9393997        7.72656393    0.00000000
    6         47           11
                                      F and up 
                                                     2        1.0708000       -1.54570901    0.00000000
                                                     2        2.8520000       -9.91327572    0.00000000
                                                     2       11.1708002      -44.19367218    0.00000000
                                                     1       32.3418007      -21.82627869    0.00000000
                                      S - F
                                                     2        1.6540000      171.23280334    0.00000000
                                                     2        1.9916000     -307.32479858    0.00000000
                                                     2        2.6903999      280.42736816    0.00000000
                                                     2        3.7328999     -153.77388000    0.00000000
                                                     1        4.3610001       40.92211151    0.00000000
                                                     0       18.4864998        3.48360991    0.00000000
                                      P - F
                                                     2        1.2197000      123.84740448    0.00000000
                                                     2        1.4884000     -238.36637878    0.00000000
                                                     2        2.0432999      222.44552612    0.00000000
                                                     2        2.8227999     -103.42056274    0.00000000
                                                     1        4.0978999       30.84042740    0.00000000
                                                     0       15.1473999        5.18727016    0.00000000
                                      D - F
                                                     2        0.2939000       -0.09446900    0.00000000
                                                     2        0.9250000       -3.48698401    0.00000000
                                                     2        2.0978999      -38.78794098    0.00000000
                                                     2        2.5294001       34.73471451    0.00000000
                                                     1        1.0637000        9.89155388    0.00000000
                                                     0       10.9393997        7.72656393    0.00000000
    7         47           11
                                      F and up 
                                                     2        1.0708000       -1.54570901    0.00000000
                                                     2        2.8520000       -9.91327572    0.00000000
                                                     2       11.1708002      -44.19367218    0.00000000
                                                     1       32.3418007      -21.82627869    0.00000000
                                      S - F
                                                     2        1.6540000      171.23280334    0.00000000
                                                     2        1.9916000     -307.32479858    0.00000000
                                                     2        2.6903999      280.42736816    0.00000000
                                                     2        3.7328999     -153.77388000    0.00000000
                                                     1        4.3610001       40.92211151    0.00000000
                                                     0       18.4864998        3.48360991    0.00000000
                                      P - F
                                                     2        1.2197000      123.84740448    0.00000000
                                                     2        1.4884000     -238.36637878    0.00000000
                                                     2        2.0432999      222.44552612    0.00000000
                                                     2        2.8227999     -103.42056274    0.00000000
                                                     1        4.0978999       30.84042740    0.00000000
                                                     0       15.1473999        5.18727016    0.00000000
                                      D - F
                                                     2        0.2939000       -0.09446900    0.00000000
                                                     2        0.9250000       -3.48698401    0.00000000
                                                     2        2.0978999      -38.78794098    0.00000000
                                                     2        2.5294001       34.73471451    0.00000000
                                                     1        1.0637000        9.89155388    0.00000000
                                                     0       10.9393997        7.72656393    0.00000000
    8         47           11
                                      F and up 
                                                     2        1.0708000       -1.54570901    0.00000000
                                                     2        2.8520000       -9.91327572    0.00000000
                                                     2       11.1708002      -44.19367218    0.00000000
                                                     1       32.3418007      -21.82627869    0.00000000
                                      S - F
                                                     2        1.6540000      171.23280334    0.00000000
                                                     2        1.9916000     -307.32479858    0.00000000
                                                     2        2.6903999      280.42736816    0.00000000
                                                     2        3.7328999     -153.77388000    0.00000000
                                                     1        4.3610001       40.92211151    0.00000000
                                                     0       18.4864998        3.48360991    0.00000000
                                      P - F
                                                     2        1.2197000      123.84740448    0.00000000
                                                     2        1.4884000     -238.36637878    0.00000000
                                                     2        2.0432999      222.44552612    0.00000000
                                                     2        2.8227999     -103.42056274    0.00000000
                                                     1        4.0978999       30.84042740    0.00000000
                                                     0       15.1473999        5.18727016    0.00000000
                                      D - F
                                                     2        0.2939000       -0.09446900    0.00000000
                                                     2        0.9250000       -3.48698401    0.00000000
                                                     2        2.0978999      -38.78794098    0.00000000
                                                     2        2.5294001       34.73471451    0.00000000
                                                     1        1.0637000        9.89155388    0.00000000
                                                     0       10.9393997        7.72656393    0.00000000
    9         47           11
                                      F and up 
                                                     2        1.0708000       -1.54570901    0.00000000
                                                     2        2.8520000       -9.91327572    0.00000000
                                                     2       11.1708002      -44.19367218    0.00000000
                                                     1       32.3418007      -21.82627869    0.00000000
                                      S - F
                                                     2        1.6540000      171.23280334    0.00000000
                                                     2        1.9916000     -307.32479858    0.00000000
                                                     2        2.6903999      280.42736816    0.00000000
                                                     2        3.7328999     -153.77388000    0.00000000
                                                     1        4.3610001       40.92211151    0.00000000
                                                     0       18.4864998        3.48360991    0.00000000
                                      P - F
                                                     2        1.2197000      123.84740448    0.00000000
                                                     2        1.4884000     -238.36637878    0.00000000
                                                     2        2.0432999      222.44552612    0.00000000
                                                     2        2.8227999     -103.42056274    0.00000000
                                                     1        4.0978999       30.84042740    0.00000000
                                                     0       15.1473999        5.18727016    0.00000000
                                      D - F
                                                     2        0.2939000       -0.09446900    0.00000000
                                                     2        0.9250000       -3.48698401    0.00000000
                                                     2        2.0978999      -38.78794098    0.00000000
                                                     2        2.5294001       34.73471451    0.00000000
                                                     1        1.0637000        9.89155388    0.00000000
                                                     0       10.9393997        7.72656393    0.00000000
   10         47           11
                                      F and up 
                                                     2        1.0708000       -1.54570901    0.00000000
                                                     2        2.8520000       -9.91327572    0.00000000
                                                     2       11.1708002      -44.19367218    0.00000000
                                                     1       32.3418007      -21.82627869    0.00000000
                                      S - F
                                                     2        1.6540000      171.23280334    0.00000000
                                                     2        1.9916000     -307.32479858    0.00000000
                                                     2        2.6903999      280.42736816    0.00000000
                                                     2        3.7328999     -153.77388000    0.00000000
                                                     1        4.3610001       40.92211151    0.00000000
                                                     0       18.4864998        3.48360991    0.00000000
                                      P - F
                                                     2        1.2197000      123.84740448    0.00000000
                                                     2        1.4884000     -238.36637878    0.00000000
                                                     2        2.0432999      222.44552612    0.00000000
                                                     2        2.8227999     -103.42056274    0.00000000
                                                     1        4.0978999       30.84042740    0.00000000
                                                     0       15.1473999        5.18727016    0.00000000
                                      D - F
                                                     2        0.2939000       -0.09446900    0.00000000
                                                     2        0.9250000       -3.48698401    0.00000000
                                                     2        2.0978999      -38.78794098    0.00000000
                                                     2        2.5294001       34.73471451    0.00000000
                                                     1        1.0637000        9.89155388    0.00000000
                                                     0       10.9393997        7.72656393    0.00000000
   11         47           11
                                      F and up 
                                                     2        1.0708000       -1.54570901    0.00000000
                                                     2        2.8520000       -9.91327572    0.00000000
                                                     2       11.1708002      -44.19367218    0.00000000
                                                     1       32.3418007      -21.82627869    0.00000000
                                      S - F
                                                     2        1.6540000      171.23280334    0.00000000
                                                     2        1.9916000     -307.32479858    0.00000000
                                                     2        2.6903999      280.42736816    0.00000000
                                                     2        3.7328999     -153.77388000    0.00000000
                                                     1        4.3610001       40.92211151    0.00000000
                                                     0       18.4864998        3.48360991    0.00000000
                                      P - F
                                                     2        1.2197000      123.84740448    0.00000000
                                                     2        1.4884000     -238.36637878    0.00000000
                                                     2        2.0432999      222.44552612    0.00000000
                                                     2        2.8227999     -103.42056274    0.00000000
                                                     1        4.0978999       30.84042740    0.00000000
                                                     0       15.1473999        5.18727016    0.00000000
                                      D - F
                                                     2        0.2939000       -0.09446900    0.00000000
                                                     2        0.9250000       -3.48698401    0.00000000
                                                     2        2.0978999      -38.78794098    0.00000000
                                                     2        2.5294001       34.73471451    0.00000000
                                                     1        1.0637000        9.89155388    0.00000000
                                                     0       10.9393997        7.72656393    0.00000000
   12         47           11
                                      F and up 
                                                     2        1.0708000       -1.54570901    0.00000000
                                                     2        2.8520000       -9.91327572    0.00000000
                                                     2       11.1708002      -44.19367218    0.00000000
                                                     1       32.3418007      -21.82627869    0.00000000
                                      S - F
                                                     2        1.6540000      171.23280334    0.00000000
                                                     2        1.9916000     -307.32479858    0.00000000
                                                     2        2.6903999      280.42736816    0.00000000
                                                     2        3.7328999     -153.77388000    0.00000000
                                                     1        4.3610001       40.92211151    0.00000000
                                                     0       18.4864998        3.48360991    0.00000000
                                      P - F
                                                     2        1.2197000      123.84740448    0.00000000
                                                     2        1.4884000     -238.36637878    0.00000000
                                                     2        2.0432999      222.44552612    0.00000000
                                                     2        2.8227999     -103.42056274    0.00000000
                                                     1        4.0978999       30.84042740    0.00000000
                                                     0       15.1473999        5.18727016    0.00000000
                                      D - F
                                                     2        0.2939000       -0.09446900    0.00000000
                                                     2        0.9250000       -3.48698401    0.00000000
                                                     2        2.0978999      -38.78794098    0.00000000
                                                     2        2.5294001       34.73471451    0.00000000
                                                     1        1.0637000        9.89155388    0.00000000
                                                     0       10.9393997        7.72656393    0.00000000
   13         47           11
                                      F and up 
                                                     2        1.0708000       -1.54570901    0.00000000
                                                     2        2.8520000       -9.91327572    0.00000000
                                                     2       11.1708002      -44.19367218    0.00000000
                                                     1       32.3418007      -21.82627869    0.00000000
                                      S - F
                                                     2        1.6540000      171.23280334    0.00000000
                                                     2        1.9916000     -307.32479858    0.00000000
                                                     2        2.6903999      280.42736816    0.00000000
                                                     2        3.7328999     -153.77388000    0.00000000
                                                     1        4.3610001       40.92211151    0.00000000
                                                     0       18.4864998        3.48360991    0.00000000
                                      P - F
                                                     2        1.2197000      123.84740448    0.00000000
                                                     2        1.4884000     -238.36637878    0.00000000
                                                     2        2.0432999      222.44552612    0.00000000
                                                     2        2.8227999     -103.42056274    0.00000000
                                                     1        4.0978999       30.84042740    0.00000000
                                                     0       15.1473999        5.18727016    0.00000000
                                      D - F
                                                     2        0.2939000       -0.09446900    0.00000000
                                                     2        0.9250000       -3.48698401    0.00000000
                                                     2        2.0978999      -38.78794098    0.00000000
                                                     2        2.5294001       34.73471451    0.00000000
                                                     1        1.0637000        9.89155388    0.00000000
                                                     0       10.9393997        7.72656393    0.00000000
   14         47           11
                                      F and up 
                                                     2        1.0708000       -1.54570901    0.00000000
                                                     2        2.8520000       -9.91327572    0.00000000
                                                     2       11.1708002      -44.19367218    0.00000000
                                                     1       32.3418007      -21.82627869    0.00000000
                                      S - F
                                                     2        1.6540000      171.23280334    0.00000000
                                                     2        1.9916000     -307.32479858    0.00000000
                                                     2        2.6903999      280.42736816    0.00000000
                                                     2        3.7328999     -153.77388000    0.00000000
                                                     1        4.3610001       40.92211151    0.00000000
                                                     0       18.4864998        3.48360991    0.00000000
                                      P - F
                                                     2        1.2197000      123.84740448    0.00000000
                                                     2        1.4884000     -238.36637878    0.00000000
                                                     2        2.0432999      222.44552612    0.00000000
                                                     2        2.8227999     -103.42056274    0.00000000
                                                     1        4.0978999       30.84042740    0.00000000
                                                     0       15.1473999        5.18727016    0.00000000
                                      D - F
                                                     2        0.2939000       -0.09446900    0.00000000
                                                     2        0.9250000       -3.48698401    0.00000000
                                                     2        2.0978999      -38.78794098    0.00000000
                                                     2        2.5294001       34.73471451    0.00000000
                                                     1        1.0637000        9.89155388    0.00000000
                                                     0       10.9393997        7.72656393    0.00000000
   15         47           11
                                      F and up 
                                                     2        1.0708000       -1.54570901    0.00000000
                                                     2        2.8520000       -9.91327572    0.00000000
                                                     2       11.1708002      -44.19367218    0.00000000
                                                     1       32.3418007      -21.82627869    0.00000000
                                      S - F
                                                     2        1.6540000      171.23280334    0.00000000
                                                     2        1.9916000     -307.32479858    0.00000000
                                                     2        2.6903999      280.42736816    0.00000000
                                                     2        3.7328999     -153.77388000    0.00000000
                                                     1        4.3610001       40.92211151    0.00000000
                                                     0       18.4864998        3.48360991    0.00000000
                                      P - F
                                                     2        1.2197000      123.84740448    0.00000000
                                                     2        1.4884000     -238.36637878    0.00000000
                                                     2        2.0432999      222.44552612    0.00000000
                                                     2        2.8227999     -103.42056274    0.00000000
                                                     1        4.0978999       30.84042740    0.00000000
                                                     0       15.1473999        5.18727016    0.00000000
                                      D - F
                                                     2        0.2939000       -0.09446900    0.00000000
                                                     2        0.9250000       -3.48698401    0.00000000
                                                     2        2.0978999      -38.78794098    0.00000000
                                                     2        2.5294001       34.73471451    0.00000000
                                                     1        1.0637000        9.89155388    0.00000000
                                                     0       10.9393997        7.72656393    0.00000000
   16         47           11
                                      F and up 
                                                     2        1.0708000       -1.54570901    0.00000000
                                                     2        2.8520000       -9.91327572    0.00000000
                                                     2       11.1708002      -44.19367218    0.00000000
                                                     1       32.3418007      -21.82627869    0.00000000
                                      S - F
                                                     2        1.6540000      171.23280334    0.00000000
                                                     2        1.9916000     -307.32479858    0.00000000
                                                     2        2.6903999      280.42736816    0.00000000
                                                     2        3.7328999     -153.77388000    0.00000000
                                                     1        4.3610001       40.92211151    0.00000000
                                                     0       18.4864998        3.48360991    0.00000000
                                      P - F
                                                     2        1.2197000      123.84740448    0.00000000
                                                     2        1.4884000     -238.36637878    0.00000000
                                                     2        2.0432999      222.44552612    0.00000000
                                                     2        2.8227999     -103.42056274    0.00000000
                                                     1        4.0978999       30.84042740    0.00000000
                                                     0       15.1473999        5.18727016    0.00000000
                                      D - F
                                                     2        0.2939000       -0.09446900    0.00000000
                                                     2        0.9250000       -3.48698401    0.00000000
                                                     2        2.0978999      -38.78794098    0.00000000
                                                     2        2.5294001       34.73471451    0.00000000
                                                     1        1.0637000        9.89155388    0.00000000
                                                     0       10.9393997        7.72656393    0.00000000
   17         47           11
                                      F and up 
                                                     2        1.0708000       -1.54570901    0.00000000
                                                     2        2.8520000       -9.91327572    0.00000000
                                                     2       11.1708002      -44.19367218    0.00000000
                                                     1       32.3418007      -21.82627869    0.00000000
                                      S - F
                                                     2        1.6540000      171.23280334    0.00000000
                                                     2        1.9916000     -307.32479858    0.00000000
                                                     2        2.6903999      280.42736816    0.00000000
                                                     2        3.7328999     -153.77388000    0.00000000
                                                     1        4.3610001       40.92211151    0.00000000
                                                     0       18.4864998        3.48360991    0.00000000
                                      P - F
                                                     2        1.2197000      123.84740448    0.00000000
                                                     2        1.4884000     -238.36637878    0.00000000
                                                     2        2.0432999      222.44552612    0.00000000
                                                     2        2.8227999     -103.42056274    0.00000000
                                                     1        4.0978999       30.84042740    0.00000000
                                                     0       15.1473999        5.18727016    0.00000000
                                      D - F
                                                     2        0.2939000       -0.09446900    0.00000000
                                                     2        0.9250000       -3.48698401    0.00000000
                                                     2        2.0978999      -38.78794098    0.00000000
                                                     2        2.5294001       34.73471451    0.00000000
                                                     1        1.0637000        9.89155388    0.00000000
                                                     0       10.9393997        7.72656393    0.00000000
   18         47           11
                                      F and up 
                                                     2        1.0708000       -1.54570901    0.00000000
                                                     2        2.8520000       -9.91327572    0.00000000
                                                     2       11.1708002      -44.19367218    0.00000000
                                                     1       32.3418007      -21.82627869    0.00000000
                                      S - F
                                                     2        1.6540000      171.23280334    0.00000000
                                                     2        1.9916000     -307.32479858    0.00000000
                                                     2        2.6903999      280.42736816    0.00000000
                                                     2        3.7328999     -153.77388000    0.00000000
                                                     1        4.3610001       40.92211151    0.00000000
                                                     0       18.4864998        3.48360991    0.00000000
                                      P - F
                                                     2        1.2197000      123.84740448    0.00000000
                                                     2        1.4884000     -238.36637878    0.00000000
                                                     2        2.0432999      222.44552612    0.00000000
                                                     2        2.8227999     -103.42056274    0.00000000
                                                     1        4.0978999       30.84042740    0.00000000
                                                     0       15.1473999        5.18727016    0.00000000
                                      D - F
                                                     2        0.2939000       -0.09446900    0.00000000
                                                     2        0.9250000       -3.48698401    0.00000000
                                                     2        2.0978999      -38.78794098    0.00000000
                                                     2        2.5294001       34.73471451    0.00000000
                                                     1        1.0637000        9.89155388    0.00000000
                                                     0       10.9393997        7.72656393    0.00000000
   19         47           11
                                      F and up 
                                                     2        1.0708000       -1.54570901    0.00000000
                                                     2        2.8520000       -9.91327572    0.00000000
                                                     2       11.1708002      -44.19367218    0.00000000
                                                     1       32.3418007      -21.82627869    0.00000000
                                      S - F
                                                     2        1.6540000      171.23280334    0.00000000
                                                     2        1.9916000     -307.32479858    0.00000000
                                                     2        2.6903999      280.42736816    0.00000000
                                                     2        3.7328999     -153.77388000    0.00000000
                                                     1        4.3610001       40.92211151    0.00000000
                                                     0       18.4864998        3.48360991    0.00000000
                                      P - F
                                                     2        1.2197000      123.84740448    0.00000000
                                                     2        1.4884000     -238.36637878    0.00000000
                                                     2        2.0432999      222.44552612    0.00000000
                                                     2        2.8227999     -103.42056274    0.00000000
                                                     1        4.0978999       30.84042740    0.00000000
                                                     0       15.1473999        5.18727016    0.00000000
                                      D - F
                                                     2        0.2939000       -0.09446900    0.00000000
                                                     2        0.9250000       -3.48698401    0.00000000
                                                     2        2.0978999      -38.78794098    0.00000000
                                                     2        2.5294001       34.73471451    0.00000000
                                                     1        1.0637000        9.89155388    0.00000000
                                                     0       10.9393997        7.72656393    0.00000000
   20         47           11
                                      F and up 
                                                     2        1.0708000       -1.54570901    0.00000000
                                                     2        2.8520000       -9.91327572    0.00000000
                                                     2       11.1708002      -44.19367218    0.00000000
                                                     1       32.3418007      -21.82627869    0.00000000
                                      S - F
                                                     2        1.6540000      171.23280334    0.00000000
                                                     2        1.9916000     -307.32479858    0.00000000
                                                     2        2.6903999      280.42736816    0.00000000
                                                     2        3.7328999     -153.77388000    0.00000000
                                                     1        4.3610001       40.92211151    0.00000000
                                                     0       18.4864998        3.48360991    0.00000000
                                      P - F
                                                     2        1.2197000      123.84740448    0.00000000
                                                     2        1.4884000     -238.36637878    0.00000000
                                                     2        2.0432999      222.44552612    0.00000000
                                                     2        2.8227999     -103.42056274    0.00000000
                                                     1        4.0978999       30.84042740    0.00000000
                                                     0       15.1473999        5.18727016    0.00000000
                                      D - F
                                                     2        0.2939000       -0.09446900    0.00000000
                                                     2        0.9250000       -3.48698401    0.00000000
                                                     2        2.0978999      -38.78794098    0.00000000
                                                     2        2.5294001       34.73471451    0.00000000
                                                     1        1.0637000        9.89155388    0.00000000
                                                     0       10.9393997        7.72656393    0.00000000
   21         47           11
                                      F and up 
                                                     2        1.0708000       -1.54570901    0.00000000
                                                     2        2.8520000       -9.91327572    0.00000000
                                                     2       11.1708002      -44.19367218    0.00000000
                                                     1       32.3418007      -21.82627869    0.00000000
                                      S - F
                                                     2        1.6540000      171.23280334    0.00000000
                                                     2        1.9916000     -307.32479858    0.00000000
                                                     2        2.6903999      280.42736816    0.00000000
                                                     2        3.7328999     -153.77388000    0.00000000
                                                     1        4.3610001       40.92211151    0.00000000
                                                     0       18.4864998        3.48360991    0.00000000
                                      P - F
                                                     2        1.2197000      123.84740448    0.00000000
                                                     2        1.4884000     -238.36637878    0.00000000
                                                     2        2.0432999      222.44552612    0.00000000
                                                     2        2.8227999     -103.42056274    0.00000000
                                                     1        4.0978999       30.84042740    0.00000000
                                                     0       15.1473999        5.18727016    0.00000000
                                      D - F
                                                     2        0.2939000       -0.09446900    0.00000000
                                                     2        0.9250000       -3.48698401    0.00000000
                                                     2        2.0978999      -38.78794098    0.00000000
                                                     2        2.5294001       34.73471451    0.00000000
                                                     1        1.0637000        9.89155388    0.00000000
                                                     0       10.9393997        7.72656393    0.00000000
   22         47           11
                                      F and up 
                                                     2        1.0708000       -1.54570901    0.00000000
                                                     2        2.8520000       -9.91327572    0.00000000
                                                     2       11.1708002      -44.19367218    0.00000000
                                                     1       32.3418007      -21.82627869    0.00000000
                                      S - F
                                                     2        1.6540000      171.23280334    0.00000000
                                                     2        1.9916000     -307.32479858    0.00000000
                                                     2        2.6903999      280.42736816    0.00000000
                                                     2        3.7328999     -153.77388000    0.00000000
                                                     1        4.3610001       40.92211151    0.00000000
                                                     0       18.4864998        3.48360991    0.00000000
                                      P - F
                                                     2        1.2197000      123.84740448    0.00000000
                                                     2        1.4884000     -238.36637878    0.00000000
                                                     2        2.0432999      222.44552612    0.00000000
                                                     2        2.8227999     -103.42056274    0.00000000
                                                     1        4.0978999       30.84042740    0.00000000
                                                     0       15.1473999        5.18727016    0.00000000
                                      D - F
                                                     2        0.2939000       -0.09446900    0.00000000
                                                     2        0.9250000       -3.48698401    0.00000000
                                                     2        2.0978999      -38.78794098    0.00000000
                                                     2        2.5294001       34.73471451    0.00000000
                                                     1        1.0637000        9.89155388    0.00000000
                                                     0       10.9393997        7.72656393    0.00000000
   23         47           11
                                      F and up 
                                                     2        1.0708000       -1.54570901    0.00000000
                                                     2        2.8520000       -9.91327572    0.00000000
                                                     2       11.1708002      -44.19367218    0.00000000
                                                     1       32.3418007      -21.82627869    0.00000000
                                      S - F
                                                     2        1.6540000      171.23280334    0.00000000
                                                     2        1.9916000     -307.32479858    0.00000000
                                                     2        2.6903999      280.42736816    0.00000000
                                                     2        3.7328999     -153.77388000    0.00000000
                                                     1        4.3610001       40.92211151    0.00000000
                                                     0       18.4864998        3.48360991    0.00000000
                                      P - F
                                                     2        1.2197000      123.84740448    0.00000000
                                                     2        1.4884000     -238.36637878    0.00000000
                                                     2        2.0432999      222.44552612    0.00000000
                                                     2        2.8227999     -103.42056274    0.00000000
                                                     1        4.0978999       30.84042740    0.00000000
                                                     0       15.1473999        5.18727016    0.00000000
                                      D - F
                                                     2        0.2939000       -0.09446900    0.00000000
                                                     2        0.9250000       -3.48698401    0.00000000
                                                     2        2.0978999      -38.78794098    0.00000000
                                                     2        2.5294001       34.73471451    0.00000000
                                                     1        1.0637000        9.89155388    0.00000000
                                                     0       10.9393997        7.72656393    0.00000000
   24         47           11
                                      F and up 
                                                     2        1.0708000       -1.54570901    0.00000000
                                                     2        2.8520000       -9.91327572    0.00000000
                                                     2       11.1708002      -44.19367218    0.00000000
                                                     1       32.3418007      -21.82627869    0.00000000
                                      S - F
                                                     2        1.6540000      171.23280334    0.00000000
[...]
                 (A1G) (EG) (EG) (EU) (EU) (A1G) (A2U) (B2U) (B1G)
                 (A1G) (B2G) (B1U) (A2U)
       Virtual   (EU) (EU) (EG) (EG) (A1G) (EU) (EU) (EG) (EG)
                 (A2U) (B1G) (B2U) (EU) (EU) (EG) (EG) (A1G) (EU)
                 (EU) (A2U) (B2G) (B1U) (A1G) (B1G) (B2U) (EG)
                 (EG) (A2G) (A1U) (A2U) (A1G) (EU) (EU) (EG) (EG)
                 (B1G) (EU) (EU) (B2G) (B1U) (EG) (EG) (A2U) (B2U)
                 (A1G) (EU) (EU) (EU) (EU) (EG) (EG) (A2U) (EG)
                 (EG) (A1G) (B2G) (B1U) (EU) (EU) (A2G) (EG) (EG)
                 (A1U) (EU) (EU) (B1G) (B2U) (A2G) (A1U) (EG) (EG)
                 (A2U) (B2G) (B1U) (A1G) (EU) (EU) (A2U) (EG) (EG)
                 (B1G) (A1G) (B2U) (EU) (EU) (A2U) (A1G) (EG) (EG)
                 (B1G) (EU) (EU) (B2U) (EG) (EG) (A2U) (A1G) (A2U)
 The electronic state is 1-A1G.
 Alpha  occ. eigenvalues --   -0.46482  -0.46173  -0.46173  -0.46125  -0.46036
 Alpha  occ. eigenvalues --   -0.46036  -0.46007  -0.46006  -0.45498  -0.45493
 Alpha  occ. eigenvalues --   -0.45492  -0.45487  -0.45181  -0.45181  -0.45169
 Alpha  occ. eigenvalues --   -0.45169  -0.45104  -0.45098  -0.44521  -0.44515
 Alpha  occ. eigenvalues --   -0.44430  -0.44420  -0.44335  -0.44334  -0.44256
 Alpha  occ. eigenvalues --   -0.44256  -0.44197  -0.44197  -0.44170  -0.44170
 Alpha  occ. eigenvalues --   -0.44045  -0.44045  -0.44013  -0.44013  -0.43727
 Alpha  occ. eigenvalues --   -0.43712  -0.43712  -0.43711  -0.43711  -0.43664
 Alpha  occ. eigenvalues --   -0.43283  -0.43283  -0.43087  -0.43087  -0.43011
 Alpha  occ. eigenvalues --   -0.43010  -0.43010  -0.43005  -0.42965  -0.42965
 Alpha  occ. eigenvalues --   -0.42953  -0.42953  -0.42891  -0.42882  -0.42882
 Alpha  occ. eigenvalues --   -0.42840  -0.42840  -0.42738  -0.42718  -0.42641
 Alpha  occ. eigenvalues --   -0.42620  -0.42613  -0.42523  -0.42432  -0.42389
 Alpha  occ. eigenvalues --   -0.42342  -0.42342  -0.42227  -0.42227  -0.42169
 Alpha  occ. eigenvalues --   -0.42167  -0.42146  -0.42145  -0.42110  -0.42110
 Alpha  occ. eigenvalues --   -0.42019  -0.42019  -0.42008  -0.42008  -0.41444
 Alpha  occ. eigenvalues --   -0.41431  -0.41378  -0.41378  -0.41305  -0.41027
 Alpha  occ. eigenvalues --   -0.40792  -0.40456  -0.40456  -0.40307  -0.40307
 Alpha  occ. eigenvalues --   -0.40128  -0.40128  -0.40081  -0.40059  -0.40059
 Alpha  occ. eigenvalues --   -0.39942  -0.39911  -0.39907  -0.39907  -0.39877
 Alpha  occ. eigenvalues --   -0.39838  -0.39838  -0.39834  -0.39834  -0.39705
 Alpha  occ. eigenvalues --   -0.39651  -0.39528  -0.39528  -0.39508  -0.39492
 Alpha  occ. eigenvalues --   -0.39492  -0.39484  -0.39479  -0.39479  -0.39471
 Alpha  occ. eigenvalues --   -0.39470  -0.39465  -0.39465  -0.39285  -0.39285
 Alpha  occ. eigenvalues --   -0.39285  -0.39285  -0.38988  -0.38988  -0.38954
 Alpha  occ. eigenvalues --   -0.38952  -0.38865  -0.38865  -0.38666  -0.38666
 Alpha  occ. eigenvalues --   -0.37589  -0.37589  -0.37550  -0.37547  -0.37528
 Alpha  occ. eigenvalues --   -0.37528  -0.37514  -0.37514  -0.36650  -0.36650
 Alpha  occ. eigenvalues --   -0.29713  -0.26398  -0.24770  -0.24770  -0.24732
 Alpha  occ. eigenvalues --   -0.24732  -0.22968  -0.21691  -0.20098  -0.20091
 Alpha  occ. eigenvalues --   -0.15821  -0.15592  -0.15586  -0.15140
 Alpha virt. eigenvalues --   -0.14353  -0.14353  -0.13927  -0.13927  -0.12979
 Alpha virt. eigenvalues --   -0.11308  -0.11308  -0.11137  -0.11137  -0.09187
 Alpha virt. eigenvalues --   -0.07630  -0.07438  -0.07298  -0.07298  -0.07048
 Alpha virt. eigenvalues --   -0.07048  -0.06351  -0.05228  -0.05228  -0.05180
 Alpha virt. eigenvalues --   -0.05017  -0.04790  -0.04348  -0.03950  -0.03760
 Alpha virt. eigenvalues --   -0.03666  -0.03666  -0.03594  -0.03582  -0.03159
 Alpha virt. eigenvalues --   -0.00963  -0.00957  -0.00957  -0.00183  -0.00183
 Alpha virt. eigenvalues --    0.01395   0.02114   0.02114   0.02218   0.02224
 Alpha virt. eigenvalues --    0.02285   0.02285   0.02468   0.02940   0.03434
 Alpha virt. eigenvalues --    0.06215   0.06215   0.06881   0.06881   0.06926
 Alpha virt. eigenvalues --    0.06926   0.09498   0.09606   0.09606   0.09726
 Alpha virt. eigenvalues --    0.09956   0.10834   0.14252   0.14252   0.15591
 Alpha virt. eigenvalues --    0.15942   0.15942   0.16025   0.17453   0.17453
 Alpha virt. eigenvalues --    0.18999   0.21456   0.21722   0.22314   0.26208
 Alpha virt. eigenvalues --    0.26208   0.32757   0.65352   0.71445   0.75571
 Alpha virt. eigenvalues --    0.87789   0.87789   1.04611   1.10131   1.10131
 Alpha virt. eigenvalues --    1.53177   1.56521   1.61713   1.76810   1.76810
 Alpha virt. eigenvalues --    2.03913   2.10252   2.13358   2.13358   2.36229
 Alpha virt. eigenvalues --    2.55014   2.55014   2.59095   2.61399   2.61399
 Alpha virt. eigenvalues --    3.02720   3.08715   3.62933
          Condensed to atoms (all electrons):
               1          2          3          4          5          6
     1  Ag  19.583837  -0.496756  -0.650537  -2.926675  -2.926675  -0.096612
     2  Ag  -0.496756  19.583837  -0.650537  -2.926675  -0.096612  -2.926675
     3  Ag  -0.650537  -0.650537  42.018811  -4.072044  -4.072044  -4.072044
     4  Ag  -2.926675  -2.926675  -4.072044  31.348648  -1.928834  -1.928834
     5  Ag  -2.926675  -0.096612  -4.072044  -1.928834  31.348648  -0.855808
     6  Ag  -0.096612  -2.926675  -4.072044  -1.928834  -0.855808  31.348648
     7  Ag  -0.496756  -0.020119  -0.650537  -0.096612  -2.926675  -0.096612
     8  Ag  -0.096612  -0.096612  -4.072044  -0.855808  -1.928834  -1.928834
     9  Ag  -0.020119  -0.496756  -0.650537  -0.096612  -0.096612  -2.926675
    10  Ag   0.993399  -0.714427  -2.708185  -1.617421  -1.617421  -0.724052
    11  Ag  -0.714427   0.993399  -2.708185  -1.617421  -0.724052  -1.617421
    12  Ag  -0.714427  -0.054590  -2.708185  -0.724052  -1.617421  -0.724052
    13  Ag  -0.054590  -0.714427  -2.708185  -0.724052  -0.724052  -1.617421
    14  Ag  -0.314668  -0.314668  -0.910008  -0.791581  -0.791581  -0.791581
    15  Ag   0.026305   0.026305  -0.107915   0.027403   0.027403   0.027403
    16  Ag  -0.006837  -0.000697  -0.008295  -0.007392  -0.007392   0.001384
    17  Ag  -0.000697  -0.006837  -0.008295  -0.007392   0.001384  -0.007392
    18  Ag  -0.000697   0.001506  -0.008295   0.001384  -0.007392   0.001384
    19  Ag   0.001506  -0.000697  -0.008295   0.001384   0.001384  -0.007392
    20  Ag  -0.000616  -0.000086  -0.000073  -0.000250  -0.000250  -0.000013
    21  Ag  -0.000250  -0.000250  -0.000424  -0.001008  -0.000087  -0.000087
    22  Ag  -0.000086  -0.000616  -0.000073  -0.000250  -0.000013  -0.000250
    23  Ag  -0.000250  -0.000013  -0.000424  -0.000087  -0.001008  -0.000036
    24  Ag  -0.000013  -0.000250  -0.000424  -0.000087  -0.000036  -0.001008
    25  Ag  -0.000013  -0.000013  -0.000424  -0.000036  -0.000087  -0.000087
    26  Ag  -0.000073  -0.000073  -0.002156  -0.000424  -0.000424  -0.000424
    27  Ag  -0.000086   0.000020  -0.000073  -0.000013  -0.000250  -0.000013
    28  Ag   0.000020  -0.000086  -0.000073  -0.000013  -0.000013  -0.000250
               7          8          9         10         11         12
     1  Ag  -0.496756  -0.096612  -0.020119   0.993399  -0.714427  -0.714427
     2  Ag  -0.020119  -0.096612  -0.496756  -0.714427   0.993399  -0.054590
     3  Ag  -0.650537  -4.072044  -0.650537  -2.708185  -2.708185  -2.708185
     4  Ag  -0.096612  -0.855808  -0.096612  -1.617421  -1.617421  -0.724052
     5  Ag  -2.926675  -1.928834  -0.096612  -1.617421  -0.724052  -1.617421
     6  Ag  -0.096612  -1.928834  -2.926675  -0.724052  -1.617421  -0.724052
     7  Ag  19.583837  -2.926675  -0.496756  -0.714427  -0.054590   0.993399
     8  Ag  -2.926675  31.348648  -2.926675  -0.724052  -0.724052  -1.617421
     9  Ag  -0.496756  -2.926675  19.583837  -0.054590  -0.714427  -0.714427
    10  Ag  -0.714427  -0.724052  -0.054590  21.569722  -0.876815  -0.876815
    11  Ag  -0.054590  -0.724052  -0.714427  -0.876815  21.569722  -0.762307
    12  Ag   0.993399  -1.617421  -0.714427  -0.876815  -0.762307  21.569722
    13  Ag  -0.714427  -1.617421   0.993399  -0.762307  -0.876815  -0.876815
    14  Ag  -0.314668  -0.791581  -0.314668   0.104581   0.104581   0.104581
    15  Ag   0.026305   0.027403   0.026305  -0.122824  -0.122824  -0.122824
    16  Ag  -0.000697   0.001384   0.001506  -0.184644   0.013873   0.013873
    17  Ag   0.001506   0.001384  -0.000697   0.013873  -0.184644   0.071648
    18  Ag  -0.006837  -0.007392  -0.000697   0.013873   0.071648  -0.184644
    19  Ag  -0.000697  -0.007392  -0.006837   0.071648   0.013873   0.013873
    20  Ag  -0.000086  -0.000013   0.000020  -0.006837  -0.000697  -0.000697
    21  Ag  -0.000013  -0.000036  -0.000013  -0.007392  -0.007392   0.001384
    22  Ag   0.000020  -0.000013  -0.000086  -0.000697  -0.006837   0.001506
    23  Ag  -0.000250  -0.000087  -0.000013  -0.007392   0.001384  -0.007392
    24  Ag  -0.000013  -0.000087  -0.000250   0.001384  -0.007392   0.001384
    25  Ag  -0.000250  -0.001008  -0.000250   0.001384   0.001384  -0.007392
    26  Ag  -0.000073  -0.000424  -0.000073  -0.008295  -0.008295  -0.008295
    27  Ag  -0.000616  -0.000250  -0.000086  -0.000697   0.001506  -0.006837
    28  Ag  -0.000086  -0.000250  -0.000616   0.001506  -0.000697  -0.000697
              13         14         15         16         17         18
     1  Ag  -0.054590  -0.314668   0.026305  -0.006837  -0.000697  -0.000697
     2  Ag  -0.714427  -0.314668   0.026305  -0.000697  -0.006837   0.001506
     3  Ag  -2.708185  -0.910008  -0.107915  -0.008295  -0.008295  -0.008295
     4  Ag  -0.724052  -0.791581   0.027403  -0.007392  -0.007392   0.001384
     5  Ag  -0.724052  -0.791581   0.027403  -0.007392   0.001384  -0.007392
     6  Ag  -1.617421  -0.791581   0.027403   0.001384  -0.007392   0.001384
     7  Ag  -0.714427  -0.314668   0.026305  -0.000697   0.001506  -0.006837
     8  Ag  -1.617421  -0.791581   0.027403   0.001384   0.001384  -0.007392
     9  Ag   0.993399  -0.314668   0.026305   0.001506  -0.000697  -0.000697
    10  Ag  -0.762307   0.104581  -0.122824  -0.184644   0.013873   0.013873
    11  Ag  -0.876815   0.104581  -0.122824   0.013873  -0.184644   0.071648
    12  Ag  -0.876815   0.104581  -0.122824   0.013873   0.071648  -0.184644
    13  Ag  21.569722   0.104581  -0.122824   0.071648   0.013873   0.013873
    14  Ag   0.104581  16.960279  -1.635421  -0.122824  -0.122824  -0.122824
    15  Ag  -0.122824  -1.635421  16.960279   0.104581   0.104581   0.104581
    16  Ag   0.071648  -0.122824   0.104581  21.569722  -0.876815  -0.876815
    17  Ag   0.013873  -0.122824   0.104581  -0.876815  21.569722  -0.762307
    18  Ag   0.013873  -0.122824   0.104581  -0.876815  -0.762307  21.569722
    19  Ag  -0.184644  -0.122824   0.104581  -0.762307  -0.876815  -0.876815
    20  Ag   0.001506   0.026305  -0.314668   0.993399  -0.714427  -0.714427
    21  Ag   0.001384   0.027403  -0.791581  -1.617421  -1.617421  -0.724052
    22  Ag  -0.000697   0.026305  -0.314668  -0.714427   0.993399  -0.054590
    23  Ag   0.001384   0.027403  -0.791581  -1.617421  -0.724052  -1.617421
    24  Ag  -0.007392   0.027403  -0.791581  -0.724052  -1.617421  -0.724052
    25  Ag  -0.007392   0.027403  -0.791581  -0.724052  -0.724052  -1.617421
    26  Ag  -0.008295  -0.107915  -0.910008  -2.708185  -2.708185  -2.708185
    27  Ag  -0.000697   0.026305  -0.314668  -0.714427  -0.054590   0.993399
    28  Ag  -0.006837   0.026305  -0.314668  -0.054590  -0.714427  -0.714427
              19         20         21         22         23         24
     1  Ag   0.001506  -0.000616  -0.000250  -0.000086  -0.000250  -0.000013
     2  Ag  -0.000697  -0.000086  -0.000250  -0.000616  -0.000013  -0.000250
     3  Ag  -0.008295  -0.000073  -0.000424  -0.000073  -0.000424  -0.000424
     4  Ag   0.001384  -0.000250  -0.001008  -0.000250  -0.000087  -0.000087
     5  Ag   0.001384  -0.000250  -0.000087  -0.000013  -0.001008  -0.000036
     6  Ag  -0.007392  -0.000013  -0.000087  -0.000250  -0.000036  -0.001008
     7  Ag  -0.000697  -0.000086  -0.000013   0.000020  -0.000250  -0.000013
     8  Ag  -0.007392  -0.000013  -0.000036  -0.000013  -0.000087  -0.000087
     9  Ag  -0.006837   0.000020  -0.000013  -0.000086  -0.000013  -0.000250
    10  Ag   0.071648  -0.006837  -0.007392  -0.000697  -0.007392   0.001384
    11  Ag   0.013873  -0.000697  -0.007392  -0.006837   0.001384  -0.007392
    12  Ag   0.013873  -0.000697   0.001384   0.001506  -0.007392   0.001384
    13  Ag  -0.184644   0.001506   0.001384  -0.000697   0.001384  -0.007392
    14  Ag  -0.122824   0.026305   0.027403   0.026305   0.027403   0.027403
    15  Ag   0.104581  -0.314668  -0.791581  -0.314668  -0.791581  -0.791581
    16  Ag  -0.762307   0.993399  -1.617421  -0.714427  -1.617421  -0.724052
    17  Ag  -0.876815  -0.714427  -1.617421   0.993399  -0.724052  -1.617421
    18  Ag  -0.876815  -0.714427  -0.724052  -0.054590  -1.617421  -0.724052
    19  Ag  21.569722  -0.054590  -0.724052  -0.714427  -0.724052  -1.617421
    20  Ag  -0.054590  19.583837  -2.926675  -0.496756  -2.926675  -0.096612
    21  Ag  -0.724052  -2.926675  31.348648  -2.926675  -1.928834  -1.928834
    22  Ag  -0.714427  -0.496756  -2.926675  19.583837  -0.096612  -2.926675
    23  Ag  -0.724052  -2.926675  -1.928834  -0.096612  31.348648  -0.855808
    24  Ag  -1.617421  -0.096612  -1.928834  -2.926675  -0.855808  31.348648
    25  Ag  -1.617421  -0.096612  -0.855808  -0.096612  -1.928834  -1.928834
    26  Ag  -2.708185  -0.650537  -4.072044  -0.650537  -4.072044  -4.072044
    27  Ag  -0.714427  -0.496756  -0.096612  -0.020119  -2.926675  -0.096612
    28  Ag   0.993399  -0.020119  -0.096612  -0.496756  -0.096612  -2.926675
              25         26         27         28
     1  Ag  -0.000013  -0.000073  -0.000086   0.000020
     2  Ag  -0.000013  -0.000073   0.000020  -0.000086
     3  Ag  -0.000424  -0.002156  -0.000073  -0.000073
     4  Ag  -0.000036  -0.000424  -0.000013  -0.000013
     5  Ag  -0.000087  -0.000424  -0.000250  -0.000013
     6  Ag  -0.000087  -0.000424  -0.000013  -0.000250
     7  Ag  -0.000250  -0.000073  -0.000616  -0.000086
     8  Ag  -0.001008  -0.000424  -0.000250  -0.000250
     9  Ag  -0.000250  -0.000073  -0.000086  -0.000616
    10  Ag   0.001384  -0.008295  -0.000697   0.001506
    11  Ag   0.001384  -0.008295   0.001506  -0.000697
    12  Ag  -0.007392  -0.008295  -0.006837  -0.000697
    13  Ag  -0.007392  -0.008295  -0.000697  -0.006837
    14  Ag   0.027403  -0.107915   0.026305   0.026305
    15  Ag  -0.791581  -0.910008  -0.314668  -0.314668
    16  Ag  -0.724052  -2.708185  -0.714427  -0.054590
    17  Ag  -0.724052  -2.708185  -0.054590  -0.714427
    18  Ag  -1.617421  -2.708185   0.993399  -0.714427
    19  Ag  -1.617421  -2.708185  -0.714427   0.993399
    20  Ag  -0.096612  -0.650537  -0.496756  -0.020119
    21  Ag  -0.855808  -4.072044  -0.096612  -0.096612
    22  Ag  -0.096612  -0.650537  -0.020119  -0.496756
    23  Ag  -1.928834  -4.072044  -2.926675  -0.096612
    24  Ag  -1.928834  -4.072044  -0.096612  -2.926675
    25  Ag  31.348648  -4.072044  -2.926675  -2.926675
    26  Ag  -4.072044  42.018811  -0.650537  -0.650537
    27  Ag  -2.926675  -0.650537  19.583837  -0.496756
    28  Ag  -2.926675  -0.650537  -0.496756  19.583837
 Mulliken charges:
               1
     1  Ag  -0.086594
     2  Ag  -0.086594
     3  Ag  -0.240500
     4  Ag  -0.055251
     5  Ag  -0.055251
     6  Ag  -0.055251
     7  Ag  -0.086594
     8  Ag  -0.055251
     9  Ag  -0.086594
    10  Ag  -0.042085
    11  Ag  -0.042085
    12  Ag  -0.042085
    13  Ag  -0.042085
    14  Ag   0.976206
    15  Ag   0.976206
    16  Ag  -0.042085
    17  Ag  -0.042085
    18  Ag  -0.042085
    19  Ag  -0.042085
    20  Ag  -0.086594
    21  Ag  -0.055251
    22  Ag  -0.086594
    23  Ag  -0.055251
    24  Ag  -0.055251
    25  Ag  -0.055251
    26  Ag  -0.240500
    27  Ag  -0.086594
    28  Ag  -0.086594
 Sum of Mulliken charges =  -0.00003
 Mulliken charges with hydrogens summed into heavy atoms:
               1
     1  Ag  -0.086594
     2  Ag  -0.086594
     3  Ag  -0.240500
     4  Ag  -0.055251
     5  Ag  -0.055251
     6  Ag  -0.055251
     7  Ag  -0.086594
     8  Ag  -0.055251
     9  Ag  -0.086594
    10  Ag  -0.042085
    11  Ag  -0.042085
    12  Ag  -0.042085
    13  Ag  -0.042085
    14  Ag   0.976206
    15  Ag   0.976206
    16  Ag  -0.042085
    17  Ag  -0.042085
    18  Ag  -0.042085
    19  Ag  -0.042085
    20  Ag  -0.086594
    21  Ag  -0.055251
    22  Ag  -0.086594
    23  Ag  -0.055251
    24  Ag  -0.055251
    25  Ag  -0.055251
    26  Ag  -0.240500
    27  Ag  -0.086594
    28  Ag  -0.086594
 Electronic spatial extent (au):  <R**2>=          35859.3338
 Charge=              0.0000 electrons
 Dipole moment (field-independent basis, Debye):
    X=              0.0000    Y=              0.0000    Z=              0.0000  Tot=              0.0000
 Quadrupole moment (field-independent basis, Debye-Ang):
   XX=           -661.8418   YY=           -661.8418   ZZ=           -888.8457
   XY=              0.0000   XZ=              0.0000   YZ=              0.0000
 Traceless Quadrupole moment (field-independent basis, Debye-Ang):
   XX=             75.6680   YY=             75.6680   ZZ=           -151.3359
   XY=              0.0000   XZ=              0.0000   YZ=              0.0000
 Octapole moment (field-independent basis, Debye-Ang**2):
  XXX=              0.0000  YYY=              0.0000  ZZZ=              0.0000  XYY=              0.0000
  XXY=              0.0000  XXZ=              0.0000  XZZ=              0.0000  YZZ=              0.0000
  YYZ=              0.0000  XYZ=              0.0000
 Hexadecapole moment (field-independent basis, Debye-Ang**3):
 XXXX=         -20626.0434 YYYY=         -20626.0434 ZZZZ=         -97779.6200 XXXY=              0.0000
 XXXZ=              0.0000 YYYX=              0.0000 YYYZ=              0.0000 ZZZX=              0.0000
 ZZZY=              0.0000 XXYY=          -6637.3843 XXZZ=         -21241.6866 YYZZ=         -21241.6866
 XXYZ=              0.0000 YYXZ=              0.0000 ZZXY=              0.0000
 N-N= 4.319034685828D+03 E-N=-1.146983461773D+04  KE= 9.520538919615D+02
 Symmetry AG   KE= 1.415800257297D+02
 Symmetry B1G  KE= 1.025155356325D+02
 Symmetry B2G  KE= 1.159719299825D+02
 Symmetry B3G  KE= 1.159719299825D+02
 Symmetry AU   KE= 1.025764821459D+02
 Symmetry B1U  KE= 1.420906611245D+02
 Symmetry B2U  KE= 1.156736636819D+02
 Symmetry B3U  KE= 1.156736636819D+02
 No NMR shielding tensors so no spin-rotation constants.
 Leave Link  601 at Tue Dec 29 20:22:32 2020, MaxMem=   262144000 cpu:         1.5
 (Enter /home/palacios/Gaussian09/intel/v.D01/g09/l9999.exe)
 1\1\GINC-COMPUTE-1-4\SP\RSVWN\Gen\Ag28\PALACIOS\29-Dec-2020\0\\#p lsda
 /gen pseudo=read Scf=(conver=5,dsymm,nodamp)\\Ag9-Ag4-Ag-Ag-Ag4-Ag9\\0
 ,1\Ag,0,-4.,0.,-6.\Ag,0,0.,4.,-6.\Ag,0,0.,0.,-6.\Ag,0,-2.,2.,-6.\Ag,0,
 -2.,-2.,-6.\Ag,0,2.,2.,-6.\Ag,0,0.,-4.,-6.\Ag,0,2.,-2.,-6.\Ag,0,4.,0.,
 -6.\Ag,0,-2.,0.,-4.\Ag,0,0.,2.,-4.\Ag,0,0.,-2.,-4.\Ag,0,2.,0.,-4.\Ag,0
 ,0.,0.,-2.\Ag,0,0.,0.,1.\Ag,0,-2.,0.,3.\Ag,0,0.,2.,3.\Ag,0,0.,-2.,3.\A
 g,0,2.,0.,3.\Ag,0,-4.,0.,5.\Ag,0,-2.,2.,5.\Ag,0,0.,4.,5.\Ag,0,-2.,-2.,
 5.\Ag,0,2.,2.,5.\Ag,0,2.,-2.,5.\Ag,0,0.,0.,5.\Ag,0,0.,-4.,5.\Ag,0,4.,0
 .,5.\\Version=ES64L-G09RevD.01\State=1-A1G\HF=-1084.0593025\RMSD=3.149
 e-06\Dipole=0.,0.,0.\Quadrupole=56.2572861,56.2572861,-112.5145723,0.,
 0.,0.\PG=D04H [C4(Ag1Ag1.Ag1Ag1),2SGV(Ag8),2SGD(Ag4)]\\@


 A COMPLEXITY IS MERELY A DISARRANGEMENT OF SIMPLICITIES.

                                    -- G. O. ABELL IN "EXPLORATION OF THE UNIVERSE"
 Job cpu time:       0 days  0 hours 10 minutes 16.2 seconds.
 File lengths (MBytes):  RWF=     36 Int=      0 D2E=      0 Chk=      3 Scr=      1
 Normal termination of Gaussian 09 at Tue Dec 29 20:22:33 2020.
