 Entering Gaussian System, Link 0=g09
 Input=Ag9-Ag4-Ag-Ag-Ag4-Ag9.gjf
 Output=Ag9-Ag4-Ag-Ag-Ag4-Ag9.log
 Initial command:
 /home/palacios/Gaussian09/intel/v.D01/g09/l1.exe "/scratch/palacios/Gau-25513.inp" -scrdir="/scratch/palacios/"
 Entering Link 1 = /home/palacios/Gaussian09/intel/v.D01/g09/l1.exe PID=     25514.
  
 Copyright (c) 1988,1990,1992,1993,1995,1998,2003,2009,2013,
            Gaussian, Inc.  All Rights Reserved.
  
 This is part of the Gaussian(R) 09 program.  It is based on
 the Gaussian(R) 03 system (copyright 2003, Gaussian, Inc.),
 the Gaussian(R) 98 system (copyright 1998, Gaussian, Inc.),
 the Gaussian(R) 94 system (copyright 1995, Gaussian, Inc.),
 the Gaussian 92(TM) system (copyright 1992, Gaussian, Inc.),
 the Gaussian 90(TM) system (copyright 1990, Gaussian, Inc.),
 the Gaussian 88(TM) system (copyright 1988, Gaussian, Inc.),
 the Gaussian 86(TM) system (copyright 1986, Carnegie Mellon
 University), and the Gaussian 82(TM) system (copyright 1983,
 Carnegie Mellon University). Gaussian is a federally registered
 trademark of Gaussian, Inc.
  
 This software contains proprietary and confidential information,
 including trade secrets, belonging to Gaussian, Inc.
  
 This software is provided under written license and may be
 used, copied, transmitted, or stored only in accord with that
 written license.
  
 The following legend is applicable only to US Government
 contracts under FAR:
  
                    RESTRICTED RIGHTS LEGEND
  
 Use, reproduction and disclosure by the US Government is
 subject to restrictions as set forth in subparagraphs (a)
 and (c) of the Commercial Computer Software - Restricted
 Rights clause in FAR 52.227-19.
  
 Gaussian, Inc.
 340 Quinnipiac St., Bldg. 40, Wallingford CT 06492
  
  
 ---------------------------------------------------------------
 Warning -- This program may not be used in any manner that
 competes with the business of Gaussian, Inc. or will provide
 assistance to any competitor of Gaussian, Inc.  The licensee
 of this program is prohibited from giving any competitor of
 Gaussian, Inc. access to this program.  By using this program,
 the user acknowledges that Gaussian, Inc. is engaged in the
 business of creating and licensing software in the field of
 computational chemistry and represents and warrants to the
 licensee that it is not a competitor of Gaussian, Inc. and that
 it will not use this program in any manner prohibited above.
 ---------------------------------------------------------------
  

 Cite this work as:
 Gaussian 09, Revision D.01,
 M. J. Frisch, G. W. Trucks, H. B. Schlegel, G. E. Scuseria, 
 M. A. Robb, J. R. Cheeseman, G. Scalmani, V. Barone, B. Mennucci, 
 G. A. Petersson, H. Nakatsuji, M. Caricato, X. Li, H. P. Hratchian, 
 A. F. Izmaylov, J. Bloino, G. Zheng, J. L. Sonnenberg, M. Hada, 
 M. Ehara, K. Toyota, R. Fukuda, J. Hasegawa, M. Ishida, T. Nakajima, 
 Y. Honda, O. Kitao, H. Nakai, T. Vreven, J. A. Montgomery, Jr., 
 J. E. Peralta, F. Ogliaro, M. Bearpark, J. J. Heyd, E. Brothers, 
 K. N. Kudin, V. N. Staroverov, T. Keith, R. Kobayashi, J. Normand, 
 K. Raghavachari, A. Rendell, J. C. Burant, S. S. Iyengar, J. Tomasi, 
 M. Cossi, N. Rega, J. M. Millam, M. Klene, J. E. Knox, J. B. Cross, 
 V. Bakken, C. Adamo, J. Jaramillo, R. Gomperts, R. E. Stratmann, 
 O. Yazyev, A. J. Austin, R. Cammi, C. Pomelli, J. W. Ochterski, 
 R. L. Martin, K. Morokuma, V. G. Zakrzewski, G. A. Voth, 
 P. Salvador, J. J. Dannenberg, S. Dapprich, A. D. Daniels, 
 O. Farkas, J. B. Foresman, J. V. Ortiz, J. Cioslowski, 
 and D. J. Fox, Gaussian, Inc., Wallingford CT, 2013.
 
 ******************************************
 Gaussian 09:  ES64L-G09RevD.01 24-Apr-2013
                10-Jan-2021 
 ******************************************
 %mem=2000MB
 %NProcShared=16
 Will use up to   16 processors via shared memory.
 %Subst L101 ../../bin
 %Subst L502 ../../bin
 -----------------------------------------------------------
 #p lsda/gen pseudo=read Scf=(conver=5,nodamp) symmetry=none
 -----------------------------------------------------------
 1/38=1/1;
 2/12=2,15=3,17=6,18=5,40=1/2;
 3/5=7,11=2,16=1,17=8,25=1,30=1,74=205/1,2,3;
 4//1;
 5/5=2,6=5,18=-2,38=5/2;
 6/7=2,8=2,9=2,10=2,28=1/1;
 99/5=1,9=1/99;
 Leave Link    1 at Sun Jan 10 21:04:05 2021, MaxMem=   262144000 cpu:         1.6
 (Enter ../../bin/l101.exe)
 ---------------------
 Ag9-Ag4-Ag-Ag-Ag4-Ag9
 ---------------------
 Symbolic Z-matrix:
 Charge =  0 Multiplicity = 1
 Ag                   -8.00004   0.       -4.00002 
 Ag                   -8.00004   4.00002   0. 
 Ag                   -8.00004   0.        0. 
 Ag                   -8.00004   2.00001  -2.00001 
 Ag                   -8.00004  -2.00001  -2.00001 
 Ag                   -8.00004   2.00001   2.00001 
 Ag                   -8.00004  -4.00002   0. 
 Ag                   -8.00004  -2.00001   2.00001 
 Ag                   -8.00004   0.        4.00002 
 Ag                   -6.00003   0.       -2.00001 
 Ag                   -6.00003   2.00001   0. 
 Ag                   -6.00003  -2.00001   0. 
 Ag                   -6.00003   0.        2.00001 
 Ag                   -4.00002   0.        0. 
 Ag                    4.00002   0.        0. 
 Ag                    6.00003   0.       -2.00001 
 Ag                    6.00003   2.00001   0. 
 Ag                    6.00003  -2.00001   0. 
 Ag                    6.00003   0.        2.00001 
 Ag                    8.00004   0.       -4.00002 
 Ag                    8.00004   2.00001  -2.00001 
 Ag                    8.00004   4.00002   0. 
 Ag                    8.00004  -2.00001  -2.00001 
 Ag                    8.00004   2.00001   2.00001 
 Ag                    8.00004  -2.00001   2.00001 
 Ag                    8.00004   0.        0. 
 Ag                    8.00004  -4.00002   0. 
 Ag                    8.00004   0.        4.00002 
 
 NAtoms=     28 NQM=       28 NQMF=       0 NMMI=      0 NMMIF=      0
                NMic=       0 NMicF=      0.
                    Isotopes and Nuclear Properties:
 (Nuclear quadrupole moments (NQMom) in fm**2, nuclear magnetic moments (NMagM)
  in nuclear magnetons)

  Atom         1           2           3           4           5           6           7           8           9          10
 IAtWgt=         107         107         107         107         107         107         107         107         107         107
 AtmWgt= 106.9050900 106.9050900 106.9050900 106.9050900 106.9050900 106.9050900 106.9050900 106.9050900 106.9050900 106.9050900
 NucSpn=           1           1           1           1           1           1           1           1           1           1
 AtZEff=   0.0000000   0.0000000   0.0000000   0.0000000   0.0000000   0.0000000   0.0000000   0.0000000   0.0000000   0.0000000
 NQMom=    0.0000000   0.0000000   0.0000000   0.0000000   0.0000000   0.0000000   0.0000000   0.0000000   0.0000000   0.0000000
 NMagM=   -0.1135700  -0.1135700  -0.1135700  -0.1135700  -0.1135700  -0.1135700  -0.1135700  -0.1135700  -0.1135700  -0.1135700
 AtZNuc=  47.0000000  47.0000000  47.0000000  47.0000000  47.0000000  47.0000000  47.0000000  47.0000000  47.0000000  47.0000000

  Atom        11          12          13          14          15          16          17          18          19          20
 IAtWgt=         107         107         107         107         107         107         107         107         107         107
 AtmWgt= 106.9050900 106.9050900 106.9050900 106.9050900 106.9050900 106.9050900 106.9050900 106.9050900 106.9050900 106.9050900
 NucSpn=           1           1           1           1           1           1           1           1           1           1
 AtZEff=   0.0000000   0.0000000   0.0000000   0.0000000   0.0000000   0.0000000   0.0000000   0.0000000   0.0000000   0.0000000
 NQMom=    0.0000000   0.0000000   0.0000000   0.0000000   0.0000000   0.0000000   0.0000000   0.0000000   0.0000000   0.0000000
 NMagM=   -0.1135700  -0.1135700  -0.1135700  -0.1135700  -0.1135700  -0.1135700  -0.1135700  -0.1135700  -0.1135700  -0.1135700
 AtZNuc=  47.0000000  47.0000000  47.0000000  47.0000000  47.0000000  47.0000000  47.0000000  47.0000000  47.0000000  47.0000000

  Atom        21          22          23          24          25          26          27          28
 IAtWgt=         107         107         107         107         107         107         107         107
 AtmWgt= 106.9050900 106.9050900 106.9050900 106.9050900 106.9050900 106.9050900 106.9050900 106.9050900
 NucSpn=           1           1           1           1           1           1           1           1
 AtZEff=   0.0000000   0.0000000   0.0000000   0.0000000   0.0000000   0.0000000   0.0000000   0.0000000
 NQMom=    0.0000000   0.0000000   0.0000000   0.0000000   0.0000000   0.0000000   0.0000000   0.0000000
 NMagM=   -0.1135700  -0.1135700  -0.1135700  -0.1135700  -0.1135700  -0.1135700  -0.1135700  -0.1135700
 AtZNuc=  47.0000000  47.0000000  47.0000000  47.0000000  47.0000000  47.0000000  47.0000000  47.0000000
 Leave Link  101 at Sun Jan 10 21:04:05 2021, MaxMem=   262144000 cpu:         1.0
 (Enter /home/palacios/Gaussian09/intel/v.D01/g09/l202.exe)
                          Input orientation:                          
 ---------------------------------------------------------------------
 Center     Atomic      Atomic             Coordinates (Angstroms)
 Number     Number       Type             X           Y           Z
 ---------------------------------------------------------------------
      1         47           0       -8.000042    0.000000   -4.000021
      2         47           0       -8.000042    4.000021    0.000000
      3         47           0       -8.000042    0.000000    0.000000
      4         47           0       -8.000042    2.000011   -2.000011
      5         47           0       -8.000042   -2.000011   -2.000011
      6         47           0       -8.000042    2.000011    2.000011
      7         47           0       -8.000042   -4.000021    0.000000
      8         47           0       -8.000042   -2.000011    2.000011
      9         47           0       -8.000042    0.000000    4.000021
     10         47           0       -6.000032    0.000000   -2.000011
     11         47           0       -6.000032    2.000011    0.000000
     12         47           0       -6.000032   -2.000011    0.000000
     13         47           0       -6.000032    0.000000    2.000011
     14         47           0       -4.000021    0.000000    0.000000
     15         47           0        4.000021    0.000000    0.000000
     16         47           0        6.000032    0.000000   -2.000011
     17         47           0        6.000032    2.000011    0.000000
     18         47           0        6.000032   -2.000011    0.000000
     19         47           0        6.000032    0.000000    2.000011
     20         47           0        8.000042    0.000000   -4.000021
     21         47           0        8.000042    2.000011   -2.000011
     22         47           0        8.000042    4.000021    0.000000
     23         47           0        8.000042   -2.000011   -2.000011
     24         47           0        8.000042    2.000011    2.000011
     25         47           0        8.000042   -2.000011    2.000011
     26         47           0        8.000042    0.000000    0.000000
     27         47           0        8.000042   -4.000021    0.000000
     28         47           0        8.000042    0.000000    4.000021
 ---------------------------------------------------------------------
                    Distance matrix (angstroms):
                    1          2          3          4          5
     1  Ag   0.000000
     2  Ag   5.656884   0.000000
     3  Ag   4.000021   4.000021   0.000000
     4  Ag   2.828442   2.828442   2.828443   0.000000
     5  Ag   2.828442   6.324589   2.828443   4.000022   0.000000
     6  Ag   6.324589   2.828442   2.828443   4.000022   5.656885
     7  Ag   5.656884   8.000042   4.000021   6.324589   2.828442
     8  Ag   6.324589   6.324589   2.828443   5.656885   4.000022
     9  Ag   8.000042   5.656884   4.000021   6.324589   6.324589
    10  Ag   2.828441   4.899005   2.828442   2.828442   2.828442
    11  Ag   4.899005   2.828441   2.828442   2.828442   4.899006
    12  Ag   4.899005   6.324589   2.828442   4.899006   2.828442
    13  Ag   6.324589   4.899005   2.828442   4.899006   4.899006
    14  Ag   5.656884   5.656884   4.000021   4.899006   4.899006
    15  Ag  12.649177  12.649177  12.000063  12.328893  12.328893
    16  Ag  14.142210  14.697016  14.142210  14.142210  14.142210
    17  Ag  14.697016  14.142210  14.142210  14.142210  14.697016
    18  Ag  14.697016  15.231627  14.142210  14.697016  14.142210
    19  Ag  15.231627  14.697016  14.142210  14.697016  14.697016
    20  Ag  16.000084  16.970652  16.492509  16.248162  16.248162
    21  Ag  16.248162  16.248162  16.248162  16.000084  16.492509
    22  Ag  16.970652  16.000084  16.492509  16.248162  17.204741
    23  Ag  16.248162  17.204741  16.248162  16.492509  16.000084
    24  Ag  17.204741  16.248162  16.248162  16.492509  16.970652
    25  Ag  17.204741  17.204741  16.248162  16.970652  16.492509
    26  Ag  16.492509  16.492509  16.000084  16.248162  16.248162
    27  Ag  16.970652  17.888638  16.492509  17.204741  16.248162
    28  Ag  17.888638  16.970652  16.492509  17.204741  17.204741
                    6          7          8          9         10
     6  Ag   0.000000
     7  Ag   6.324589   0.000000
     8  Ag   4.000022   2.828442   0.000000
     9  Ag   2.828442   5.656884   2.828442   0.000000
    10  Ag   4.899006   4.899005   4.899006   6.324589   0.000000
    11  Ag   2.828442   6.324589   4.899006   4.899005   2.828443
    12  Ag   4.899006   2.828441   2.828442   4.899005   2.828443
    13  Ag   2.828442   4.899005   2.828442   2.828441   4.000022
    14  Ag   4.899006   5.656884   4.899006   5.656884   2.828443
    15  Ag  12.328893  12.649177  12.328893  12.649177  10.198093
    16  Ag  14.697016  14.697016  14.697016  15.231627  12.000064
    17  Ag  14.142210  15.231627  14.697016  14.697016  12.328894
    18  Ag  14.697016  14.142210  14.142210  14.697016  12.328894
    19  Ag  14.142210  14.697016  14.142210  14.142210  12.649178
    20  Ag  17.204741  16.970652  17.204741  17.888638  14.142210
    21  Ag  16.492509  17.204741  16.970652  17.204741  14.142210
    22  Ag  16.248162  17.888638  17.204741  16.970652  14.697016
    23  Ag  16.970652  16.248162  16.492509  17.204741  14.142210
    24  Ag  16.000084  17.204741  16.492509  16.248162  14.697016
    25  Ag  16.492509  16.248162  16.000084  16.248162  14.697016
    26  Ag  16.248162  16.492509  16.248162  16.492509  14.142210
    27  Ag  17.204741  16.000084  16.248162  16.970652  14.697016
    28  Ag  16.248162  16.970652  16.248162  16.000084  15.231627
                   11         12         13         14         15
    11  Ag   0.000000
    12  Ag   4.000022   0.000000
    13  Ag   2.828443   2.828443   0.000000
    14  Ag   2.828443   2.828443   2.828443   0.000000
    15  Ag  10.198093  10.198093  10.198093   8.000042   0.000000
    16  Ag  12.328894  12.328894  12.649178  10.198093   2.828443
    17  Ag  12.000064  12.649178  12.328894  10.198093   2.828443
    18  Ag  12.649178  12.000064  12.328894  10.198093   2.828443
    19  Ag  12.328894  12.328894  12.000064  10.198093   2.828443
    20  Ag  14.697016  14.697016  15.231627  12.649177   5.656884
    21  Ag  14.142210  14.697016  14.697016  12.328893   4.899006
    22  Ag  14.142210  15.231627  14.697016  12.649177   5.656884
    23  Ag  14.697016  14.142210  14.697016  12.328893   4.899006
    24  Ag  14.142210  14.697016  14.142210  12.328893   4.899006
    25  Ag  14.697016  14.142210  14.142210  12.328893   4.899006
    26  Ag  14.142210  14.142210  14.142210  12.000063   4.000021
    27  Ag  15.231627  14.142210  14.697016  12.649177   5.656884
    28  Ag  14.697016  14.697016  14.142210  12.649177   5.656884
                   16         17         18         19         20
    16  Ag   0.000000
    17  Ag   2.828443   0.000000
    18  Ag   2.828443   4.000022   0.000000
    19  Ag   4.000022   2.828443   2.828443   0.000000
    20  Ag   2.828441   4.899005   4.899005   6.324589   0.000000
    21  Ag   2.828442   2.828442   4.899006   4.899006   2.828442
    22  Ag   4.899005   2.828441   6.324589   4.899005   5.656884
    23  Ag   2.828442   4.899006   2.828442   4.899006   2.828442
    24  Ag   4.899006   2.828442   4.899006   2.828442   6.324589
    25  Ag   4.899006   4.899006   2.828442   2.828442   6.324589
    26  Ag   2.828442   2.828442   2.828442   2.828442   4.000021
    27  Ag   4.899005   6.324589   2.828441   4.899005   5.656884
    28  Ag   6.324589   4.899005   4.899005   2.828441   8.000042
                   21         22         23         24         25
    21  Ag   0.000000
    22  Ag   2.828442   0.000000
    23  Ag   4.000022   6.324589   0.000000
    24  Ag   4.000022   2.828442   5.656885   0.000000
    25  Ag   5.656885   6.324589   4.000022   4.000022   0.000000
    26  Ag   2.828443   4.000021   2.828443   2.828443   2.828443
    27  Ag   6.324589   8.000042   2.828442   6.324589   2.828442
    28  Ag   6.324589   5.656884   6.324589   2.828442   2.828442
                   26         27         28
    26  Ag   0.000000
    27  Ag   4.000021   0.000000
    28  Ag   4.000021   5.656884   0.000000
 Symmetry turned off by external request.
 Stoichiometry    Ag28
 Rotational constants (GHZ):      0.0211041      0.0029844      0.0029844
 Leave Link  202 at Sun Jan 10 21:04:05 2021, MaxMem=   262144000 cpu:         0.0
 (Enter /home/palacios/Gaussian09/intel/v.D01/g09/l301.exe)
 General basis read from cards:  (5D, 7F)
 Centers:       1      2      3      4      5      6      7      8      9     10
 Centers:      11     12     13     14     15     16     17     18     19     20
 Centers:      21     22     23     24     25     26     27     28
 S 3 1.00
     Exponent=  4.9810000000D-01 Coefficients= -3.2332200000D-01
     Exponent=  1.5860000000D-01 Coefficients=  4.2564500000D-01
     Exponent=  4.7100000000D-02 Coefficients=  7.9261400000D-01
 P 3 1.00
     Exponent=  7.5890000000D-01 Coefficients= -2.8534000000D-02
     Exponent=  9.0800000000D-02 Coefficients=  3.9044500000D-01
     Exponent=  2.8300000000D-02 Coefficients=  7.0070800000D-01
 D 4 1.00
     Exponent=  2.4127000000D+00 Coefficients=  3.0885300000D-01
     Exponent=  1.0153000000D+00 Coefficients=  4.5043400000D-01
     Exponent=  4.0930000000D-01 Coefficients=  3.3831000000D-01
     Exponent=  1.5030000000D-01 Coefficients=  1.2944000000D-01
 ****
 ======================================================================================================
                                       Pseudopotential Parameters
 ======================================================================================================
  Center     Atomic      Valence      Angular      Power
  Number     Number     Electrons     Momentum     of R      Exponent        Coefficient   SO-Coeffient
 ======================================================================================================
    1         47           11
                                      F and up 
                                                     2        1.0708000       -1.54570901    0.00000000
                                                     2        2.8520000       -9.91327572    0.00000000
                                                     2       11.1708002      -44.19367218    0.00000000
                                                     1       32.3418007      -21.82627869    0.00000000
                                      S - F
                                                     2        1.6540000      171.23280334    0.00000000
                                                     2        1.9916000     -307.32479858    0.00000000
                                                     2        2.6903999      280.42736816    0.00000000
                                                     2        3.7328999     -153.77388000    0.00000000
                                                     1        4.3610001       40.92211151    0.00000000
                                                     0       18.4864998        3.48360991    0.00000000
                                      P - F
                                                     2        1.2197000      123.84740448    0.00000000
                                                     2        1.4884000     -238.36637878    0.00000000
                                                     2        2.0432999      222.44552612    0.00000000
                                                     2        2.8227999     -103.42056274    0.00000000
                                                     1        4.0978999       30.84042740    0.00000000
                                                     0       15.1473999        5.18727016    0.00000000
                                      D - F
                                                     2        0.2939000       -0.09446900    0.00000000
                                                     2        0.9250000       -3.48698401    0.00000000
                                                     2        2.0978999      -38.78794098    0.00000000
                                                     2        2.5294001       34.73471451    0.00000000
                                                     1        1.0637000        9.89155388    0.00000000
                                                     0       10.9393997        7.72656393    0.00000000
    2         47           11
                                      F and up 
                                                     2        1.0708000       -1.54570901    0.00000000
                                                     2        2.8520000       -9.91327572    0.00000000
                                                     2       11.1708002      -44.19367218    0.00000000
                                                     1       32.3418007      -21.82627869    0.00000000
                                      S - F
                                                     2        1.6540000      171.23280334    0.00000000
                                                     2        1.9916000     -307.32479858    0.00000000
                                                     2        2.6903999      280.42736816    0.00000000
                                                     2        3.7328999     -153.77388000    0.00000000
                                                     1        4.3610001       40.92211151    0.00000000
                                                     0       18.4864998        3.48360991    0.00000000
                                      P - F
                                                     2        1.2197000      123.84740448    0.00000000
                                                     2        1.4884000     -238.36637878    0.00000000
                                                     2        2.0432999      222.44552612    0.00000000
                                                     2        2.8227999     -103.42056274    0.00000000
                                                     1        4.0978999       30.84042740    0.00000000
                                                     0       15.1473999        5.18727016    0.00000000
                                      D - F
                                                     2        0.2939000       -0.09446900    0.00000000
                                                     2        0.9250000       -3.48698401    0.00000000
                                                     2        2.0978999      -38.78794098    0.00000000
                                                     2        2.5294001       34.73471451    0.00000000
                                                     1        1.0637000        9.89155388    0.00000000
                                                     0       10.9393997        7.72656393    0.00000000
    3         47           11
                                      F and up 
                                                     2        1.0708000       -1.54570901    0.00000000
                                                     2        2.8520000       -9.91327572    0.00000000
                                                     2       11.1708002      -44.19367218    0.00000000
                                                     1       32.3418007      -21.82627869    0.00000000
                                      S - F
                                                     2        1.6540000      171.23280334    0.00000000
                                                     2        1.9916000     -307.32479858    0.00000000
                                                     2        2.6903999      280.42736816    0.00000000
                                                     2        3.7328999     -153.77388000    0.00000000
                                                     1        4.3610001       40.92211151    0.00000000
                                                     0       18.4864998        3.48360991    0.00000000
                                      P - F
                                                     2        1.2197000      123.84740448    0.00000000
                                                     2        1.4884000     -238.36637878    0.00000000
                                                     2        2.0432999      222.44552612    0.00000000
                                                     2        2.8227999     -103.42056274    0.00000000
                                                     1        4.0978999       30.84042740    0.00000000
                                                     0       15.1473999        5.18727016    0.00000000
                                      D - F
                                                     2        0.2939000       -0.09446900    0.00000000
                                                     2        0.9250000       -3.48698401    0.00000000
                                                     2        2.0978999      -38.78794098    0.00000000
                                                     2        2.5294001       34.73471451    0.00000000
                                                     1        1.0637000        9.89155388    0.00000000
                                                     0       10.9393997        7.72656393    0.00000000
    4         47           11
                                      F and up 
                                                     2        1.0708000       -1.54570901    0.00000000
                                                     2        2.8520000       -9.91327572    0.00000000
                                                     2       11.1708002      -44.19367218    0.00000000
                                                     1       32.3418007      -21.82627869    0.00000000
                                      S - F
                                                     2        1.6540000      171.23280334    0.00000000
                                                     2        1.9916000     -307.32479858    0.00000000
                                                     2        2.6903999      280.42736816    0.00000000
                                                     2        3.7328999     -153.77388000    0.00000000
                                                     1        4.3610001       40.92211151    0.00000000
                                                     0       18.4864998        3.48360991    0.00000000
                                      P - F
                                                     2        1.2197000      123.84740448    0.00000000
                                                     2        1.4884000     -238.36637878    0.00000000
                                                     2        2.0432999      222.44552612    0.00000000
                                                     2        2.8227999     -103.42056274    0.00000000
                                                     1        4.0978999       30.84042740    0.00000000
                                                     0       15.1473999        5.18727016    0.00000000
                                      D - F
                                                     2        0.2939000       -0.09446900    0.00000000
                                                     2        0.9250000       -3.48698401    0.00000000
                                                     2        2.0978999      -38.78794098    0.00000000
                                                     2        2.5294001       34.73471451    0.00000000
                                                     1        1.0637000        9.89155388    0.00000000
                                                     0       10.9393997        7.72656393    0.00000000
    5         47           11
                                      F and up 
                                                     2        1.0708000       -1.54570901    0.00000000
                                                     2        2.8520000       -9.91327572    0.00000000
                                                     2       11.1708002      -44.19367218    0.00000000
                                                     1       32.3418007      -21.82627869    0.00000000
                                      S - F
                                                     2        1.6540000      171.23280334    0.00000000
                                                     2        1.9916000     -307.32479858    0.00000000
                                                     2        2.6903999      280.42736816    0.00000000
                                                     2        3.7328999     -153.77388000    0.00000000
                                                     1        4.3610001       40.92211151    0.00000000
                                                     0       18.4864998        3.48360991    0.00000000
                                      P - F
                                                     2        1.2197000      123.84740448    0.00000000
                                                     2        1.4884000     -238.36637878    0.00000000
                                                     2        2.0432999      222.44552612    0.00000000
                                                     2        2.8227999     -103.42056274    0.00000000
                                                     1        4.0978999       30.84042740    0.00000000
                                                     0       15.1473999        5.18727016    0.00000000
                                      D - F
                                                     2        0.2939000       -0.09446900    0.00000000
                                                     2        0.9250000       -3.48698401    0.00000000
                                                     2        2.0978999      -38.78794098    0.00000000
                                                     2        2.5294001       34.73471451    0.00000000
                                                     1        1.0637000        9.89155388    0.00000000
                                                     0       10.9393997        7.72656393    0.00000000
    6         47           11
                                      F and up 
                                                     2        1.0708000       -1.54570901    0.00000000
                                                     2        2.8520000       -9.91327572    0.00000000
                                                     2       11.1708002      -44.19367218    0.00000000
                                                     1       32.3418007      -21.82627869    0.00000000
                                      S - F
                                                     2        1.6540000      171.23280334    0.00000000
                                                     2        1.9916000     -307.32479858    0.00000000
                                                     2        2.6903999      280.42736816    0.00000000
                                                     2        3.7328999     -153.77388000    0.00000000
                                                     1        4.3610001       40.92211151    0.00000000
                                                     0       18.4864998        3.48360991    0.00000000
                                      P - F
                                                     2        1.2197000      123.84740448    0.00000000
                                                     2        1.4884000     -238.36637878    0.00000000
                                                     2        2.0432999      222.44552612    0.00000000
                                                     2        2.8227999     -103.42056274    0.00000000
                                                     1        4.0978999       30.84042740    0.00000000
                                                     0       15.1473999        5.18727016    0.00000000
                                      D - F
                                                     2        0.2939000       -0.09446900    0.00000000
                                                     2        0.9250000       -3.48698401    0.00000000
                                                     2        2.0978999      -38.78794098    0.00000000
                                                     2        2.5294001       34.73471451    0.00000000
                                                     1        1.0637000        9.89155388    0.00000000
                                                     0       10.9393997        7.72656393    0.00000000
    7         47           11
                                      F and up 
                                                     2        1.0708000       -1.54570901    0.00000000
                                                     2        2.8520000       -9.91327572    0.00000000
                                                     2       11.1708002      -44.19367218    0.00000000
                                                     1       32.3418007      -21.82627869    0.00000000
                                      S - F
                                                     2        1.6540000      171.23280334    0.00000000
                                                     2        1.9916000     -307.32479858    0.00000000
                                                     2        2.6903999      280.42736816    0.00000000
                                                     2        3.7328999     -153.77388000    0.00000000
                                                     1        4.3610001       40.92211151    0.00000000
                                                     0       18.4864998        3.48360991    0.00000000
                                      P - F
                                                     2        1.2197000      123.84740448    0.00000000
                                                     2        1.4884000     -238.36637878    0.00000000
                                                     2        2.0432999      222.44552612    0.00000000
                                                     2        2.8227999     -103.42056274    0.00000000
                                                     1        4.0978999       30.84042740    0.00000000
                                                     0       15.1473999        5.18727016    0.00000000
                                      D - F
                                                     2        0.2939000       -0.09446900    0.00000000
                                                     2        0.9250000       -3.48698401    0.00000000
                                                     2        2.0978999      -38.78794098    0.00000000
                                                     2        2.5294001       34.73471451    0.00000000
                                                     1        1.0637000        9.89155388    0.00000000
                                                     0       10.9393997        7.72656393    0.00000000
    8         47           11
                                      F and up 
                                                     2        1.0708000       -1.54570901    0.00000000
                                                     2        2.8520000       -9.91327572    0.00000000
                                                     2       11.1708002      -44.19367218    0.00000000
                                                     1       32.3418007      -21.82627869    0.00000000
                                      S - F
                                                     2        1.6540000      171.23280334    0.00000000
                                                     2        1.9916000     -307.32479858    0.00000000
                                                     2        2.6903999      280.42736816    0.00000000
                                                     2        3.7328999     -153.77388000    0.00000000
                                                     1        4.3610001       40.92211151    0.00000000
                                                     0       18.4864998        3.48360991    0.00000000
                                      P - F
                                                     2        1.2197000      123.84740448    0.00000000
                                                     2        1.4884000     -238.36637878    0.00000000
                                                     2        2.0432999      222.44552612    0.00000000
                                                     2        2.8227999     -103.42056274    0.00000000
                                                     1        4.0978999       30.84042740    0.00000000
                                                     0       15.1473999        5.18727016    0.00000000
                                      D - F
                                                     2        0.2939000       -0.09446900    0.00000000
                                                     2        0.9250000       -3.48698401    0.00000000
                                                     2        2.0978999      -38.78794098    0.00000000
                                                     2        2.5294001       34.73471451    0.00000000
                                                     1        1.0637000        9.89155388    0.00000000
                                                     0       10.9393997        7.72656393    0.00000000
    9         47           11
                                      F and up 
                                                     2        1.0708000       -1.54570901    0.00000000
                                                     2        2.8520000       -9.91327572    0.00000000
                                                     2       11.1708002      -44.19367218    0.00000000
                                                     1       32.3418007      -21.82627869    0.00000000
                                      S - F
                                                     2        1.6540000      171.23280334    0.00000000
                                                     2        1.9916000     -307.32479858    0.00000000
                                                     2        2.6903999      280.42736816    0.00000000
                                                     2        3.7328999     -153.77388000    0.00000000
                                                     1        4.3610001       40.92211151    0.00000000
                                                     0       18.4864998        3.48360991    0.00000000
                                      P - F
                                                     2        1.2197000      123.84740448    0.00000000
                                                     2        1.4884000     -238.36637878    0.00000000
                                                     2        2.0432999      222.44552612    0.00000000
                                                     2        2.8227999     -103.42056274    0.00000000
                                                     1        4.0978999       30.84042740    0.00000000
                                                     0       15.1473999        5.18727016    0.00000000
                                      D - F
                                                     2        0.2939000       -0.09446900    0.00000000
                                                     2        0.9250000       -3.48698401    0.00000000
                                                     2        2.0978999      -38.78794098    0.00000000
                                                     2        2.5294001       34.73471451    0.00000000
                                                     1        1.0637000        9.89155388    0.00000000
                                                     0       10.9393997        7.72656393    0.00000000
   10         47           11
                                      F and up 
                                                     2        1.0708000       -1.54570901    0.00000000
                                                     2        2.8520000       -9.91327572    0.00000000
                                                     2       11.1708002      -44.19367218    0.00000000
                                                     1       32.3418007      -21.82627869    0.00000000
                                      S - F
                                                     2        1.6540000      171.23280334    0.00000000
                                                     2        1.9916000     -307.32479858    0.00000000
                                                     2        2.6903999      280.42736816    0.00000000
                                                     2        3.7328999     -153.77388000    0.00000000
                                                     1        4.3610001       40.92211151    0.00000000
                                                     0       18.4864998        3.48360991    0.00000000
                                      P - F
                                                     2        1.2197000      123.84740448    0.00000000
                                                     2        1.4884000     -238.36637878    0.00000000
                                                     2        2.0432999      222.44552612    0.00000000
                                                     2        2.8227999     -103.42056274    0.00000000
                                                     1        4.0978999       30.84042740    0.00000000
                                                     0       15.1473999        5.18727016    0.00000000
                                      D - F
                                                     2        0.2939000       -0.09446900    0.00000000
                                                     2        0.9250000       -3.48698401    0.00000000
                                                     2        2.0978999      -38.78794098    0.00000000
                                                     2        2.5294001       34.73471451    0.00000000
                                                     1        1.0637000        9.89155388    0.00000000
                                                     0       10.9393997        7.72656393    0.00000000
   11         47           11
                                      F and up 
                                                     2        1.0708000       -1.54570901    0.00000000
                                                     2        2.8520000       -9.91327572    0.00000000
                                                     2       11.1708002      -44.19367218    0.00000000
                                                     1       32.3418007      -21.82627869    0.00000000
                                      S - F
                                                     2        1.6540000      171.23280334    0.00000000
                                                     2        1.9916000     -307.32479858    0.00000000
                                                     2        2.6903999      280.42736816    0.00000000
                                                     2        3.7328999     -153.77388000    0.00000000
                                                     1        4.3610001       40.92211151    0.00000000
                                                     0       18.4864998        3.48360991    0.00000000
                                      P - F
                                                     2        1.2197000      123.84740448    0.00000000
                                                     2        1.4884000     -238.36637878    0.00000000
                                                     2        2.0432999      222.44552612    0.00000000
                                                     2        2.8227999     -103.42056274    0.00000000
                                                     1        4.0978999       30.84042740    0.00000000
                                                     0       15.1473999        5.18727016    0.00000000
                                      D - F
                                                     2        0.2939000       -0.09446900    0.00000000
                                                     2        0.9250000       -3.48698401    0.00000000
                                                     2        2.0978999      -38.78794098    0.00000000
                                                     2        2.5294001       34.73471451    0.00000000
                                                     1        1.0637000        9.89155388    0.00000000
                                                     0       10.9393997        7.72656393    0.00000000
   12         47           11
                                      F and up 
                                                     2        1.0708000       -1.54570901    0.00000000
                                                     2        2.8520000       -9.91327572    0.00000000
                                                     2       11.1708002      -44.19367218    0.00000000
                                                     1       32.3418007      -21.82627869    0.00000000
                                      S - F
                                                     2        1.6540000      171.23280334    0.00000000
                                                     2        1.9916000     -307.32479858    0.00000000
                                                     2        2.6903999      280.42736816    0.00000000
                                                     2        3.7328999     -153.77388000    0.00000000
                                                     1        4.3610001       40.92211151    0.00000000
                                                     0       18.4864998        3.48360991    0.00000000
                                      P - F
                                                     2        1.2197000      123.84740448    0.00000000
                                                     2        1.4884000     -238.36637878    0.00000000
                                                     2        2.0432999      222.44552612    0.00000000
                                                     2        2.8227999     -103.42056274    0.00000000
                                                     1        4.0978999       30.84042740    0.00000000
                                                     0       15.1473999        5.18727016    0.00000000
                                      D - F
                                                     2        0.2939000       -0.09446900    0.00000000
                                                     2        0.9250000       -3.48698401    0.00000000
                                                     2        2.0978999      -38.78794098    0.00000000
                                                     2        2.5294001       34.73471451    0.00000000
                                                     1        1.0637000        9.89155388    0.00000000
                                                     0       10.9393997        7.72656393    0.00000000
   13         47           11
                                      F and up 
                                                     2        1.0708000       -1.54570901    0.00000000
                                                     2        2.8520000       -9.91327572    0.00000000
                                                     2       11.1708002      -44.19367218    0.00000000
                                                     1       32.3418007      -21.82627869    0.00000000
                                      S - F
                                                     2        1.6540000      171.23280334    0.00000000
                                                     2        1.9916000     -307.32479858    0.00000000
                                                     2        2.6903999      280.42736816    0.00000000
                                                     2        3.7328999     -153.77388000    0.00000000
                                                     1        4.3610001       40.92211151    0.00000000
                                                     0       18.4864998        3.48360991    0.00000000
                                      P - F
                                                     2        1.2197000      123.84740448    0.00000000
                                                     2        1.4884000     -238.36637878    0.00000000
                                                     2        2.0432999      222.44552612    0.00000000
                                                     2        2.8227999     -103.42056274    0.00000000
                                                     1        4.0978999       30.84042740    0.00000000
                                                     0       15.1473999        5.18727016    0.00000000
                                      D - F
                                                     2        0.2939000       -0.09446900    0.00000000
                                                     2        0.9250000       -3.48698401    0.00000000
                                                     2        2.0978999      -38.78794098    0.00000000
                                                     2        2.5294001       34.73471451    0.00000000
                                                     1        1.0637000        9.89155388    0.00000000
                                                     0       10.9393997        7.72656393    0.00000000
   14         47           11
                                      F and up 
                                                     2        1.0708000       -1.54570901    0.00000000
                                                     2        2.8520000       -9.91327572    0.00000000
                                                     2       11.1708002      -44.19367218    0.00000000
                                                     1       32.3418007      -21.82627869    0.00000000
                                      S - F
                                                     2        1.6540000      171.23280334    0.00000000
                                                     2        1.9916000     -307.32479858    0.00000000
                                                     2        2.6903999      280.42736816    0.00000000
                                                     2        3.7328999     -153.77388000    0.00000000
                                                     1        4.3610001       40.92211151    0.00000000
                                                     0       18.4864998        3.48360991    0.00000000
                                      P - F
                                                     2        1.2197000      123.84740448    0.00000000
                                                     2        1.4884000     -238.36637878    0.00000000
                                                     2        2.0432999      222.44552612    0.00000000
                                                     2        2.8227999     -103.42056274    0.00000000
                                                     1        4.0978999       30.84042740    0.00000000
                                                     0       15.1473999        5.18727016    0.00000000
                                      D - F
                                                     2        0.2939000       -0.09446900    0.00000000
                                                     2        0.9250000       -3.48698401    0.00000000
                                                     2        2.0978999      -38.78794098    0.00000000
                                                     2        2.5294001       34.73471451    0.00000000
                                                     1        1.0637000        9.89155388    0.00000000
                                                     0       10.9393997        7.72656393    0.00000000
   15         47           11
                                      F and up 
                                                     2        1.0708000       -1.54570901    0.00000000
                                                     2        2.8520000       -9.91327572    0.00000000
                                                     2       11.1708002      -44.19367218    0.00000000
                                                     1       32.3418007      -21.82627869    0.00000000
                                      S - F
                                                     2        1.6540000      171.23280334    0.00000000
                                                     2        1.9916000     -307.32479858    0.00000000
                                                     2        2.6903999      280.42736816    0.00000000
                                                     2        3.7328999     -153.77388000    0.00000000
                                                     1        4.3610001       40.92211151    0.00000000
                                                     0       18.4864998        3.48360991    0.00000000
                                      P - F
                                                     2        1.2197000      123.84740448    0.00000000
                                                     2        1.4884000     -238.36637878    0.00000000
                                                     2        2.0432999      222.44552612    0.00000000
                                                     2        2.8227999     -103.42056274    0.00000000
                                                     1        4.0978999       30.84042740    0.00000000
                                                     0       15.1473999        5.18727016    0.00000000
                                      D - F
                                                     2        0.2939000       -0.09446900    0.00000000
                                                     2        0.9250000       -3.48698401    0.00000000
                                                     2        2.0978999      -38.78794098    0.00000000
                                                     2        2.5294001       34.73471451    0.00000000
                                                     1        1.0637000        9.89155388    0.00000000
                                                     0       10.9393997        7.72656393    0.00000000
   16         47           11
                                      F and up 
                                                     2        1.0708000       -1.54570901    0.00000000
                                                     2        2.8520000       -9.91327572    0.00000000
                                                     2       11.1708002      -44.19367218    0.00000000
                                                     1       32.3418007      -21.82627869    0.00000000
                                      S - F
                                                     2        1.6540000      171.23280334    0.00000000
                                                     2        1.9916000     -307.32479858    0.00000000
                                                     2        2.6903999      280.42736816    0.00000000
                                                     2        3.7328999     -153.77388000    0.00000000
                                                     1        4.3610001       40.92211151    0.00000000
                                                     0       18.4864998        3.48360991    0.00000000
                                      P - F
                                                     2        1.2197000      123.84740448    0.00000000
                                                     2        1.4884000     -238.36637878    0.00000000
                                                     2        2.0432999      222.44552612    0.00000000
                                                     2        2.8227999     -103.42056274    0.00000000
                                                     1        4.0978999       30.84042740    0.00000000
                                                     0       15.1473999        5.18727016    0.00000000
                                      D - F
                                                     2        0.2939000       -0.09446900    0.00000000
                                                     2        0.9250000       -3.48698401    0.00000000
                                                     2        2.0978999      -38.78794098    0.00000000
                                                     2        2.5294001       34.73471451    0.00000000
                                                     1        1.0637000        9.89155388    0.00000000
                                                     0       10.9393997        7.72656393    0.00000000
   17         47           11
                                      F and up 
                                                     2        1.0708000       -1.54570901    0.00000000
                                                     2        2.8520000       -9.91327572    0.00000000
                                                     2       11.1708002      -44.19367218    0.00000000
                                                     1       32.3418007      -21.82627869    0.00000000
                                      S - F
                                                     2        1.6540000      171.23280334    0.00000000
                                                     2        1.9916000     -307.32479858    0.00000000
                                                     2        2.6903999      280.42736816    0.00000000
                                                     2        3.7328999     -153.77388000    0.00000000
                                                     1        4.3610001       40.92211151    0.00000000
                                                     0       18.4864998        3.48360991    0.00000000
                                      P - F
                                                     2        1.2197000      123.84740448    0.00000000
                                                     2        1.4884000     -238.36637878    0.00000000
                                                     2        2.0432999      222.44552612    0.00000000
                                                     2        2.8227999     -103.42056274    0.00000000
                                                     1        4.0978999       30.84042740    0.00000000
                                                     0       15.1473999        5.18727016    0.00000000
                                      D - F
                                                     2        0.2939000       -0.09446900    0.00000000
                                                     2        0.9250000       -3.48698401    0.00000000
                                                     2        2.0978999      -38.78794098    0.00000000
                                                     2        2.5294001       34.73471451    0.00000000
                                                     1        1.0637000        9.89155388    0.00000000
                                                     0       10.9393997        7.72656393    0.00000000
   18         47           11
                                      F and up 
                                                     2        1.0708000       -1.54570901    0.00000000
                                                     2        2.8520000       -9.91327572    0.00000000
                                                     2       11.1708002      -44.19367218    0.00000000
                                                     1       32.3418007      -21.82627869    0.00000000
                                      S - F
                                                     2        1.6540000      171.23280334    0.00000000
                                                     2        1.9916000     -307.32479858    0.00000000
                                                     2        2.6903999      280.42736816    0.00000000
                                                     2        3.7328999     -153.77388000    0.00000000
                                                     1        4.3610001       40.92211151    0.00000000
                                                     0       18.4864998        3.48360991    0.00000000
                                      P - F
                                                     2        1.2197000      123.84740448    0.00000000
                                                     2        1.4884000     -238.36637878    0.00000000
                                                     2        2.0432999      222.44552612    0.00000000
                                                     2        2.8227999     -103.42056274    0.00000000
                                                     1        4.0978999       30.84042740    0.00000000
                                                     0       15.1473999        5.18727016    0.00000000
                                      D - F
                                                     2        0.2939000       -0.09446900    0.00000000
                                                     2        0.9250000       -3.48698401    0.00000000
                                                     2        2.0978999      -38.78794098    0.00000000
                                                     2        2.5294001       34.73471451    0.00000000
                                                     1        1.0637000        9.89155388    0.00000000
                                                     0       10.9393997        7.72656393    0.00000000
   19         47           11
                                      F and up 
                                                     2        1.0708000       -1.54570901    0.00000000
                                                     2        2.8520000       -9.91327572    0.00000000
                                                     2       11.1708002      -44.19367218    0.00000000
                                                     1       32.3418007      -21.82627869    0.00000000
                                      S - F
                                                     2        1.6540000      171.23280334    0.00000000
                                                     2        1.9916000     -307.32479858    0.00000000
                                                     2        2.6903999      280.42736816    0.00000000
                                                     2        3.7328999     -153.77388000    0.00000000
                                                     1        4.3610001       40.92211151    0.00000000
                                                     0       18.4864998        3.48360991    0.00000000
                                      P - F
                                                     2        1.2197000      123.84740448    0.00000000
                                                     2        1.4884000     -238.36637878    0.00000000
                                                     2        2.0432999      222.44552612    0.00000000
                                                     2        2.8227999     -103.42056274    0.00000000
                                                     1        4.0978999       30.84042740    0.00000000
                                                     0       15.1473999        5.18727016    0.00000000
                                      D - F
                                                     2        0.2939000       -0.09446900    0.00000000
                                                     2        0.9250000       -3.48698401    0.00000000
                                                     2        2.0978999      -38.78794098    0.00000000
                                                     2        2.5294001       34.73471451    0.00000000
                                                     1        1.0637000        9.89155388    0.00000000
                                                     0       10.9393997        7.72656393    0.00000000
   20         47           11
                                      F and up 
                                                     2        1.0708000       -1.54570901    0.00000000
                                                     2        2.8520000       -9.91327572    0.00000000
                                                     2       11.1708002      -44.19367218    0.00000000
                                                     1       32.3418007      -21.82627869    0.00000000
                                      S - F
                                                     2        1.6540000      171.23280334    0.00000000
                                                     2        1.9916000     -307.32479858    0.00000000
                                                     2        2.6903999      280.42736816    0.00000000
                                                     2        3.7328999     -153.77388000    0.00000000
                                                     1        4.3610001       40.92211151    0.00000000
                                                     0       18.4864998        3.48360991    0.00000000
                                      P - F
                                                     2        1.2197000      123.84740448    0.00000000
                                                     2        1.4884000     -238.36637878    0.00000000
                                                     2        2.0432999      222.44552612    0.00000000
                                                     2        2.8227999     -103.42056274    0.00000000
                                                     1        4.0978999       30.84042740    0.00000000
                                                     0       15.1473999        5.18727016    0.00000000
                                      D - F
                                                     2        0.2939000       -0.09446900    0.00000000
                                                     2        0.9250000       -3.48698401    0.00000000
                                                     2        2.0978999      -38.78794098    0.00000000
                                                     2        2.5294001       34.73471451    0.00000000
                                                     1        1.0637000        9.89155388    0.00000000
                                                     0       10.9393997        7.72656393    0.00000000
   21         47           11
                                      F and up 
                                                     2        1.0708000       -1.54570901    0.00000000
                                                     2        2.8520000       -9.91327572    0.00000000
                                                     2       11.1708002      -44.19367218    0.00000000
                                                     1       32.3418007      -21.82627869    0.00000000
                                      S - F
                                                     2        1.6540000      171.23280334    0.00000000
                                                     2        1.9916000     -307.32479858    0.00000000
                                                     2        2.6903999      280.42736816    0.00000000
                                                     2        3.7328999     -153.77388000    0.00000000
                                                     1        4.3610001       40.92211151    0.00000000
                                                     0       18.4864998        3.48360991    0.00000000
                                      P - F
                                                     2        1.2197000      123.84740448    0.00000000
                                                     2        1.4884000     -238.36637878    0.00000000
                                                     2        2.0432999      222.44552612    0.00000000
                                                     2        2.8227999     -103.42056274    0.00000000
                                                     1        4.0978999       30.84042740    0.00000000
                                                     0       15.1473999        5.18727016    0.00000000
                                      D - F
                                                     2        0.2939000       -0.09446900    0.00000000
                                                     2        0.9250000       -3.48698401    0.00000000
                                                     2        2.0978999      -38.78794098    0.00000000
                                                     2        2.5294001       34.73471451    0.00000000
                                                     1        1.0637000        9.89155388    0.00000000
                                                     0       10.9393997        7.72656393    0.00000000
   22         47           11
                                      F and up 
                                                     2        1.0708000       -1.54570901    0.00000000
                                                     2        2.8520000       -9.91327572    0.00000000
                                                     2       11.1708002      -44.19367218    0.00000000
                                                     1       32.3418007      -21.82627869    0.00000000
                                      S - F
                                                     2        1.6540000      171.23280334    0.00000000
                                                     2        1.9916000     -307.32479858    0.00000000
                                                     2        2.6903999      280.42736816    0.00000000
                                                     2        3.7328999     -153.77388000    0.00000000
                                                     1        4.3610001       40.92211151    0.00000000
                                                     0       18.4864998        3.48360991    0.00000000
                                      P - F
                                                     2        1.2197000      123.84740448    0.00000000
                                                     2        1.4884000     -238.36637878    0.00000000
                                                     2        2.0432999      222.44552612    0.00000000
                                                     2        2.8227999     -103.42056274    0.00000000
                                                     1        4.0978999       30.84042740    0.00000000
                                                     0       15.1473999        5.18727016    0.00000000
                                      D - F
                                                     2        0.2939000       -0.09446900    0.00000000
                                                     2        0.9250000       -3.48698401    0.00000000
                                                     2        2.0978999      -38.78794098    0.00000000
                                                     2        2.5294001       34.73471451    0.00000000
                                                     1        1.0637000        9.89155388    0.00000000
                                                     0       10.9393997        7.72656393    0.00000000
   23         47           11
                                      F and up 
                                                     2        1.0708000       -1.54570901    0.00000000
                                                     2        2.8520000       -9.91327572    0.00000000
                                                     2       11.1708002      -44.19367218    0.00000000
                                                     1       32.3418007      -21.82627869    0.00000000
                                      S - F
                                                     2        1.6540000      171.23280334    0.00000000
                                                     2        1.9916000     -307.32479858    0.00000000
                                                     2        2.6903999      280.42736816    0.00000000
                                                     2        3.7328999     -153.77388000    0.00000000
                                                     1        4.3610001       40.92211151    0.00000000
                                                     0       18.4864998        3.48360991    0.00000000
                                      P - F
                                                     2        1.2197000      123.84740448    0.00000000
                                                     2        1.4884000     -238.36637878    0.00000000
                                                     2        2.0432999      222.44552612    0.00000000
                                                     2        2.8227999     -103.42056274    0.00000000
                                                     1        4.0978999       30.84042740    0.00000000
                                                     0       15.1473999        5.18727016    0.00000000
                                      D - F
                                                     2        0.2939000       -0.09446900    0.00000000
                                                     2        0.9250000       -3.48698401    0.00000000
                                                     2        2.0978999      -38.78794098    0.00000000
                                                     2        2.5294001       34.73471451    0.00000000
                                                     1        1.0637000        9.89155388    0.00000000
                                                     0       10.9393997        7.72656393    0.00000000
   24         47           11
                                      F and up 
                                                     2        1.0708000       -1.54570901    0.00000000
                                                     2        2.8520000       -9.91327572    0.00000000
                                                     2       11.1708002      -44.19367218    0.00000000
                                                     1       32.3418007      -21.82627869    0.00000000
                                      S - F
                                                     2        1.6540000      171.23280334    0.00000000
                                                     2        1.9916000     -307.32479858    0.00000000
                                                     2        2.6903999      280.42736816    0.00000000
                                                     2        3.7328999     -153.77388000    0.00000000
                                                     1        4.3610001       40.92211151    0.00000000
                                                     0       18.4864998        3.48360991    0.00000000
                                      P - F
                                                     2        1.2197000      123.84740448    0.00000000
                                                     2        1.4884000     -238.36637878    0.00000000
                                                     2        2.0432999      222.44552612    0.00000000
                                                     2        2.8227999     -103.42056274    0.00000000
                                                     1        4.0978999       30.84042740    0.00000000
                                                     0       15.1473999        5.18727016    0.00000000
                                      D - F
                                                     2        0.2939000       -0.09446900    0.00000000
                                                     2        0.9250000       -3.48698401    0.00000000
                                                     2        2.0978999      -38.78794098    0.00000000
                                                     2        2.5294001       34.73471451    0.00000000
                                                     1        1.0637000        9.89155388    0.00000000
                                                     0       10.9393997        7.72656393    0.00000000
   25         47           11
                                      F and up 
                                                     2        1.0708000       -1.54570901    0.00000000
                                                     2        2.8520000       -9.91327572    0.00000000
                                                     2       11.1708002      -44.19367218    0.00000000
                                                     1       32.3418007      -21.82627869    0.00000000
                                      S - F
                                                     2        1.6540000      171.23280334    0.00000000
                                                     2        1.9916000     -307.32479858    0.00000000
[...]
 ---------------------------------------------------------
 Total num. of electrons in electrode 2:   154.059251336591     
 ---------------------------------------------------------
  ----------------- End of ANT.G09 ------------------- 
 Leave Link  502 at Sun Jan 10 21:06:19 2021, MaxMem=   262144000 cpu:      1793.0
 (Enter /home/palacios/Gaussian09/intel/v.D01/g09/l601.exe)
 Copying SCF densities to generalized density rwf, IOpCl= 0 IROHF=0.

 **********************************************************************

            Population analysis using the SCF density.

 **********************************************************************

 Alpha  occ. eigenvalues --   -0.48907  -0.48899  -0.48562  -0.48562  -0.48562
 Alpha  occ. eigenvalues --   -0.48562  -0.48360  -0.48360  -0.47730  -0.47727
 Alpha  occ. eigenvalues --   -0.47628  -0.47628  -0.47334  -0.47334  -0.47209
 Alpha  occ. eigenvalues --   -0.47209  -0.47209  -0.47209  -0.47022  -0.47021
 Alpha  occ. eigenvalues --   -0.46281  -0.46281  -0.46281  -0.46281  -0.46008
 Alpha  occ. eigenvalues --   -0.46007  -0.45973  -0.45973  -0.45886  -0.45886
 Alpha  occ. eigenvalues --   -0.45886  -0.45886  -0.45472  -0.45472  -0.45428
 Alpha  occ. eigenvalues --   -0.45428  -0.45428  -0.45428  -0.44823  -0.44823
 Alpha  occ. eigenvalues --   -0.44707  -0.44707  -0.44707  -0.44707  -0.44601
 Alpha  occ. eigenvalues --   -0.44600  -0.44467  -0.44467  -0.44316  -0.44316
 Alpha  occ. eigenvalues --   -0.44309  -0.44309  -0.44308  -0.44308  -0.43973
 Alpha  occ. eigenvalues --   -0.43973  -0.43626  -0.43626  -0.43361  -0.43361
 Alpha  occ. eigenvalues --   -0.43361  -0.43361  -0.43202  -0.43202  -0.43187
 Alpha  occ. eigenvalues --   -0.43187  -0.42943  -0.42939  -0.42939  -0.42938
 Alpha  occ. eigenvalues --   -0.42795  -0.42795  -0.42795  -0.42795  -0.42622
 Alpha  occ. eigenvalues --   -0.42622  -0.42510  -0.42510  -0.42499  -0.42497
 Alpha  occ. eigenvalues --   -0.42469  -0.42469  -0.42413  -0.42413  -0.42413
 Alpha  occ. eigenvalues --   -0.42413  -0.42196  -0.42196  -0.42196  -0.42196
 Alpha  occ. eigenvalues --   -0.41965  -0.41964  -0.41857  -0.41857  -0.41582
 Alpha  occ. eigenvalues --   -0.41582  -0.41456  -0.41456  -0.41456  -0.41456
 Alpha  occ. eigenvalues --   -0.41341  -0.41341  -0.41223  -0.41223  -0.41223
 Alpha  occ. eigenvalues --   -0.41223  -0.41043  -0.41043  -0.40973  -0.40973
 Alpha  occ. eigenvalues --   -0.40942  -0.40942  -0.40942  -0.40942  -0.40830
 Alpha  occ. eigenvalues --   -0.40830  -0.40795  -0.40795  -0.40795  -0.40795
 Alpha  occ. eigenvalues --   -0.40753  -0.40751  -0.40437  -0.40437  -0.40152
 Alpha  occ. eigenvalues --   -0.40152  -0.40142  -0.40142  -0.40142  -0.40142
 Alpha  occ. eigenvalues --   -0.39062  -0.39062  -0.39062  -0.39062  -0.39051
 Alpha  occ. eigenvalues --   -0.39051  -0.38998  -0.38998  -0.37976  -0.37976
 Alpha  occ. eigenvalues --   -0.28677  -0.28677  -0.26251  -0.26251  -0.26250
 Alpha  occ. eigenvalues --   -0.26250  -0.23819  -0.23730  -0.20877  -0.20876
 Alpha  occ. eigenvalues --   -0.16801  -0.16801  -0.16316  -0.16310
 Alpha virt. eigenvalues --   -0.15527  -0.15527  -0.15526  -0.15526  -0.12216
 Alpha virt. eigenvalues --   -0.12095  -0.12017  -0.12017  -0.12015  -0.12015
 Alpha virt. eigenvalues --   -0.08411  -0.08407  -0.08012  -0.08012  -0.07996
 Alpha virt. eigenvalues --   -0.07996  -0.07365  -0.07116  -0.06158  -0.06153
 Alpha virt. eigenvalues --   -0.05714  -0.05714  -0.05638  -0.05638  -0.04830
 Alpha virt. eigenvalues --   -0.04413  -0.04408  -0.04400  -0.04085  -0.04085
 Alpha virt. eigenvalues --   -0.02922  -0.02731  -0.01860  -0.01860  -0.01814
 Alpha virt. eigenvalues --   -0.01814   0.00939   0.00987   0.01430   0.01432
 Alpha virt. eigenvalues --    0.01473   0.01473   0.01484   0.01484   0.01819
 Alpha virt. eigenvalues --    0.02007   0.05445   0.05445   0.05849   0.05849
 Alpha virt. eigenvalues --    0.06426   0.06426   0.06447   0.06447   0.08758
 Alpha virt. eigenvalues --    0.08789   0.09492   0.09509   0.13172   0.13172
 Alpha virt. eigenvalues --    0.13473   0.13473   0.14311   0.14316   0.15627
 Alpha virt. eigenvalues --    0.15627   0.16550   0.16550   0.18465   0.18566
 Alpha virt. eigenvalues --    0.21070   0.21074   0.67127   0.67186   0.82121
 Alpha virt. eigenvalues --    0.83508   0.92683   0.92683   0.92718   0.92718
 Alpha virt. eigenvalues --    1.28006   1.55235   1.55587   1.63184   1.77609
 Alpha virt. eigenvalues --    1.77609   1.77976   1.79486   1.79486   1.86015
 Alpha virt. eigenvalues --    2.42996   2.43831   2.44021   2.55701   2.55701
 Alpha virt. eigenvalues --    2.55775   2.55775   2.56470
          Condensed to atoms (all electrons):
               1          2          3          4          5          6
     1  Ag  19.575893  -0.496718  -0.691569  -2.942986  -2.942986  -0.108729
     2  Ag  -0.496718  19.575892  -0.691569  -2.942986  -0.108729  -2.942986
     3  Ag  -0.691569  -0.691569  42.041872  -4.180826  -4.180826  -4.180826
     4  Ag  -2.942986  -2.942986  -4.180826  31.098461  -1.966628  -1.966628
     5  Ag  -2.942986  -0.108729  -4.180826  -1.966628  31.098461  -0.907317
     6  Ag  -0.108729  -2.942986  -4.180826  -1.966628  -0.907317  31.098461
     7  Ag  -0.496718  -0.019665  -0.691569  -0.108729  -2.942986  -0.108729
     8  Ag  -0.108729  -0.108729  -4.180826  -0.907317  -1.966628  -1.966628
     9  Ag  -0.019665  -0.496718  -0.691569  -0.108729  -0.108729  -2.942986
    10  Ag   0.893277  -0.689125  -2.719762  -1.517359  -1.517359  -0.726542
    11  Ag  -0.689125   0.893278  -2.719762  -1.517359  -0.726542  -1.517359
    12  Ag  -0.689125  -0.049140  -2.719762  -0.726542  -1.517359  -0.726542
    13  Ag  -0.049140  -0.689125  -2.719762  -0.726542  -0.726542  -1.517359
    14  Ag  -0.198581  -0.198581  -0.478643  -0.501100  -0.501100  -0.501100
    15  Ag   0.000025   0.000025  -0.000111   0.000038   0.000038   0.000038
    16  Ag  -0.000006  -0.000001  -0.000001  -0.000004  -0.000004   0.000001
    17  Ag  -0.000001  -0.000006  -0.000001  -0.000004   0.000001  -0.000004
    18  Ag  -0.000001   0.000001  -0.000001   0.000001  -0.000004   0.000001
    19  Ag   0.000001  -0.000001  -0.000001   0.000001   0.000001  -0.000004
    20  Ag   0.000000   0.000000   0.000000   0.000000   0.000000   0.000000
    21  Ag   0.000000   0.000000   0.000000   0.000000   0.000000   0.000000
    22  Ag   0.000000   0.000000   0.000000   0.000000   0.000000   0.000000
    23  Ag   0.000000   0.000000   0.000000   0.000000   0.000000   0.000000
    24  Ag   0.000000   0.000000   0.000000   0.000000   0.000000   0.000000
    25  Ag   0.000000   0.000000   0.000000   0.000000   0.000000   0.000000
    26  Ag   0.000000   0.000000   0.000000   0.000000   0.000000   0.000000
    27  Ag   0.000000   0.000000   0.000000   0.000000   0.000000   0.000000
    28  Ag   0.000000   0.000000   0.000000   0.000000   0.000000   0.000000
               7          8          9         10         11         12
     1  Ag  -0.496718  -0.108729  -0.019665   0.893277  -0.689125  -0.689125
     2  Ag  -0.019665  -0.108729  -0.496718  -0.689125   0.893278  -0.049140
     3  Ag  -0.691569  -4.180826  -0.691569  -2.719762  -2.719762  -2.719762
     4  Ag  -0.108729  -0.907317  -0.108729  -1.517359  -1.517359  -0.726542
     5  Ag  -2.942986  -1.966628  -0.108729  -1.517359  -0.726542  -1.517359
     6  Ag  -0.108729  -1.966628  -2.942986  -0.726542  -1.517359  -0.726542
     7  Ag  19.575892  -2.942986  -0.496718  -0.689125  -0.049140   0.893278
     8  Ag  -2.942986  31.098461  -2.942986  -0.726542  -0.726542  -1.517359
     9  Ag  -0.496718  -2.942986  19.575892  -0.049140  -0.689125  -0.689125
    10  Ag  -0.689125  -0.726542  -0.049140  20.833014  -0.912613  -0.912613
    11  Ag  -0.049140  -0.726542  -0.689125  -0.912613  20.833015  -0.571593
    12  Ag   0.893278  -1.517359  -0.689125  -0.912613  -0.571593  20.833015
    13  Ag  -0.689125  -1.517359   0.893278  -0.571593  -0.912613  -0.912613
    14  Ag  -0.198581  -0.501100  -0.198581   0.320870   0.320870   0.320870
    15  Ag   0.000025   0.000038   0.000025   0.000218   0.000218   0.000218
    16  Ag  -0.000001   0.000001   0.000001  -0.000310   0.000014   0.000014
    17  Ag   0.000001   0.000001  -0.000001   0.000014  -0.000310   0.000181
    18  Ag  -0.000006  -0.000004  -0.000001   0.000014   0.000181  -0.000310
    19  Ag  -0.000001  -0.000004  -0.000006   0.000181   0.000014   0.000014
    20  Ag   0.000000   0.000000   0.000000  -0.000006  -0.000001  -0.000001
    21  Ag   0.000000   0.000000   0.000000  -0.000004  -0.000004   0.000001
    22  Ag   0.000000   0.000000   0.000000  -0.000001  -0.000006   0.000001
    23  Ag   0.000000   0.000000   0.000000  -0.000004   0.000001  -0.000004
    24  Ag   0.000000   0.000000   0.000000   0.000001  -0.000004   0.000001
    25  Ag   0.000000   0.000000   0.000000   0.000001   0.000001  -0.000004
    26  Ag   0.000000   0.000000   0.000000  -0.000001  -0.000001  -0.000001
    27  Ag   0.000000   0.000000   0.000000  -0.000001   0.000001  -0.000006
    28  Ag   0.000000   0.000000   0.000000   0.000001  -0.000001  -0.000001
              13         14         15         16         17         18
     1  Ag  -0.049140  -0.198581   0.000025  -0.000006  -0.000001  -0.000001
     2  Ag  -0.689125  -0.198581   0.000025  -0.000001  -0.000006   0.000001
     3  Ag  -2.719762  -0.478643  -0.000111  -0.000001  -0.000001  -0.000001
     4  Ag  -0.726542  -0.501100   0.000038  -0.000004  -0.000004   0.000001
     5  Ag  -0.726542  -0.501100   0.000038  -0.000004   0.000001  -0.000004
     6  Ag  -1.517359  -0.501100   0.000038   0.000001  -0.000004   0.000001
     7  Ag  -0.689125  -0.198581   0.000025  -0.000001   0.000001  -0.000006
     8  Ag  -1.517359  -0.501100   0.000038   0.000001   0.000001  -0.000004
     9  Ag   0.893278  -0.198581   0.000025   0.000001  -0.000001  -0.000001
    10  Ag  -0.571593   0.320870   0.000218  -0.000310   0.000014   0.000014
    11  Ag  -0.912613   0.320870   0.000218   0.000014  -0.000310   0.000181
    12  Ag  -0.912613   0.320870   0.000218   0.000014   0.000181  -0.000310
    13  Ag  20.833014   0.320870   0.000218   0.000181   0.000014   0.000014
    14  Ag   0.320870  12.660635  -0.003555   0.000218   0.000218   0.000218
    15  Ag   0.000218  -0.003555  12.660635   0.320870   0.320870   0.320870
    16  Ag   0.000181   0.000218   0.320870  20.833014  -0.912613  -0.912613
    17  Ag   0.000014   0.000218   0.320870  -0.912613  20.833015  -0.571593
    18  Ag   0.000014   0.000218   0.320870  -0.912613  -0.571593  20.833015
    19  Ag  -0.000310   0.000218   0.320870  -0.571593  -0.912613  -0.912613
    20  Ag   0.000001   0.000025  -0.198581   0.893278  -0.689125  -0.689125
    21  Ag   0.000001   0.000038  -0.501100  -1.517359  -1.517359  -0.726542
    22  Ag  -0.000001   0.000025  -0.198581  -0.689125   0.893278  -0.049140
    23  Ag   0.000001   0.000038  -0.501100  -1.517359  -0.726542  -1.517359
    24  Ag  -0.000004   0.000038  -0.501100  -0.726542  -1.517359  -0.726542
    25  Ag  -0.000004   0.000038  -0.501100  -0.726542  -0.726542  -1.517359
    26  Ag  -0.000001  -0.000111  -0.478643  -2.719762  -2.719762  -2.719762
    27  Ag  -0.000001   0.000025  -0.198581  -0.689125  -0.049140   0.893278
    28  Ag  -0.000006   0.000025  -0.198581  -0.049140  -0.689125  -0.689125
              19         20         21         22         23         24
     1  Ag   0.000001   0.000000   0.000000   0.000000   0.000000   0.000000
     2  Ag  -0.000001   0.000000   0.000000   0.000000   0.000000   0.000000
     3  Ag  -0.000001   0.000000   0.000000   0.000000   0.000000   0.000000
     4  Ag   0.000001   0.000000   0.000000   0.000000   0.000000   0.000000
     5  Ag   0.000001   0.000000   0.000000   0.000000   0.000000   0.000000
     6  Ag  -0.000004   0.000000   0.000000   0.000000   0.000000   0.000000
     7  Ag  -0.000001   0.000000   0.000000   0.000000   0.000000   0.000000
     8  Ag  -0.000004   0.000000   0.000000   0.000000   0.000000   0.000000
     9  Ag  -0.000006   0.000000   0.000000   0.000000   0.000000   0.000000
    10  Ag   0.000181  -0.000006  -0.000004  -0.000001  -0.000004   0.000001
    11  Ag   0.000014  -0.000001  -0.000004  -0.000006   0.000001  -0.000004
    12  Ag   0.000014  -0.000001   0.000001   0.000001  -0.000004   0.000001
    13  Ag  -0.000310   0.000001   0.000001  -0.000001   0.000001  -0.000004
    14  Ag   0.000218   0.000025   0.000038   0.000025   0.000038   0.000038
    15  Ag   0.320870  -0.198581  -0.501100  -0.198581  -0.501100  -0.501100
    16  Ag  -0.571593   0.893278  -1.517359  -0.689125  -1.517359  -0.726542
    17  Ag  -0.912613  -0.689125  -1.517359   0.893278  -0.726542  -1.517359
    18  Ag  -0.912613  -0.689125  -0.726542  -0.049140  -1.517359  -0.726542
    19  Ag  20.833014  -0.049140  -0.726542  -0.689125  -0.726542  -1.517359
    20  Ag  -0.049140  19.575892  -2.942986  -0.496718  -2.942986  -0.108729
    21  Ag  -0.726542  -2.942986  31.098461  -2.942986  -1.966628  -1.966628
    22  Ag  -0.689125  -0.496718  -2.942986  19.575892  -0.108729  -2.942986
    23  Ag  -0.726542  -2.942986  -1.966628  -0.108729  31.098461  -0.907317
    24  Ag  -1.517359  -0.108729  -1.966628  -2.942986  -0.907317  31.098461
    25  Ag  -1.517359  -0.108729  -0.907317  -0.108729  -1.966628  -1.966628
    26  Ag  -2.719762  -0.691569  -4.180826  -0.691569  -4.180826  -4.180826
    27  Ag  -0.689125  -0.496718  -0.108729  -0.019665  -2.942986  -0.108729
    28  Ag   0.893277  -0.019665  -0.108729  -0.496718  -0.108729  -2.942986
              25         26         27         28
     1  Ag   0.000000   0.000000   0.000000   0.000000
     2  Ag   0.000000   0.000000   0.000000   0.000000
     3  Ag   0.000000   0.000000   0.000000   0.000000
     4  Ag   0.000000   0.000000   0.000000   0.000000
     5  Ag   0.000000   0.000000   0.000000   0.000000
     6  Ag   0.000000   0.000000   0.000000   0.000000
     7  Ag   0.000000   0.000000   0.000000   0.000000
     8  Ag   0.000000   0.000000   0.000000   0.000000
     9  Ag   0.000000   0.000000   0.000000   0.000000
    10  Ag   0.000001  -0.000001  -0.000001   0.000001
    11  Ag   0.000001  -0.000001   0.000001  -0.000001
    12  Ag  -0.000004  -0.000001  -0.000006  -0.000001
    13  Ag  -0.000004  -0.000001  -0.000001  -0.000006
    14  Ag   0.000038  -0.000111   0.000025   0.000025
    15  Ag  -0.501100  -0.478643  -0.198581  -0.198581
    16  Ag  -0.726542  -2.719762  -0.689125  -0.049140
    17  Ag  -0.726542  -2.719762  -0.049140  -0.689125
    18  Ag  -1.517359  -2.719762   0.893278  -0.689125
    19  Ag  -1.517359  -2.719762  -0.689125   0.893277
    20  Ag  -0.108729  -0.691569  -0.496718  -0.019665
    21  Ag  -0.907317  -4.180826  -0.108729  -0.108729
    22  Ag  -0.108729  -0.691569  -0.019665  -0.496718
    23  Ag  -1.966628  -4.180826  -2.942986  -0.108729
    24  Ag  -1.966628  -4.180826  -0.108729  -2.942986
    25  Ag  31.098461  -4.180826  -2.942986  -2.942986
    26  Ag  -4.180826  42.041872  -0.691569  -0.691569
    27  Ag  -2.942986  -0.691569  19.575892  -0.496718
    28  Ag  -2.942986  -0.691569  -0.496718  19.575893
 Mulliken charges:
               1
     1  Ag  -0.035118
     2  Ag  -0.035118
     3  Ag  -0.194487
     4  Ag   0.015237
     5  Ag   0.015237
     6  Ag   0.015237
     7  Ag  -0.035118
     8  Ag   0.015237
     9  Ag  -0.035118
    10  Ag  -0.015494
    11  Ag  -0.015494
    12  Ag  -0.015493
    13  Ag  -0.015494
    14  Ag   0.335791
    15  Ag   0.335791
    16  Ag  -0.015494
    17  Ag  -0.015493
    18  Ag  -0.015494
    19  Ag  -0.015494
    20  Ag  -0.035118
    21  Ag   0.015237
    22  Ag  -0.035118
    23  Ag   0.015237
    24  Ag   0.015237
    25  Ag   0.015237
    26  Ag  -0.194487
    27  Ag  -0.035118
    28  Ag  -0.035118
 Sum of Mulliken charges =  -0.00039
 Mulliken charges with hydrogens summed into heavy atoms:
               1
     1  Ag  -0.035118
     2  Ag  -0.035118
     3  Ag  -0.194487
     4  Ag   0.015237
     5  Ag   0.015237
     6  Ag   0.015237
     7  Ag  -0.035118
     8  Ag   0.015237
     9  Ag  -0.035118
    10  Ag  -0.015494
    11  Ag  -0.015494
    12  Ag  -0.015493
    13  Ag  -0.015494
    14  Ag   0.335791
    15  Ag   0.335791
    16  Ag  -0.015494
    17  Ag  -0.015493
    18  Ag  -0.015494
    19  Ag  -0.015494
    20  Ag  -0.035118
    21  Ag   0.015237
    22  Ag  -0.035118
    23  Ag   0.015237
    24  Ag   0.015237
    25  Ag   0.015237
    26  Ag  -0.194487
    27  Ag  -0.035118
    28  Ag  -0.035118
 Electronic spatial extent (au):  <R**2>=          68473.3064
 Charge=             -0.0004 electrons
 Dipole moment (field-independent basis, Debye):
    X=              0.0000    Y=              0.0000    Z=              0.0000  Tot=              0.0000
 Quadrupole moment (field-independent basis, Debye-Ang):
   XX=          -1141.6944   YY=           -673.8589   ZZ=           -673.8589
   XY=              0.0000   XZ=              0.0000   YZ=              0.0000
 Traceless Quadrupole moment (field-independent basis, Debye-Ang):
   XX=           -311.8904   YY=            155.9452   ZZ=            155.9452
   XY=              0.0000   XZ=              0.0000   YZ=              0.0000
 Octapole moment (field-independent basis, Debye-Ang**2):
  XXX=              0.0000  YYY=              0.0000  ZZZ=              0.0000  XYY=              0.0000
  XXY=              0.0000  XXZ=              0.0000  XZZ=              0.0000  YZZ=              0.0000
  YYZ=              0.0000  XYZ=              0.0000
 Hexadecapole moment (field-independent basis, Debye-Ang**3):
 XXXX=        -241381.1813 YYYY=         -20960.9532 ZZZZ=         -20960.9525 XXXY=             -0.0003
 XXXZ=              0.0003 YYYX=             -0.0001 YYYZ=              0.0000 ZZZX=              0.0001
 ZZZY=              0.0000 XXYY=         -43179.0170 XXZZ=         -43179.0162 YYZZ=          -6690.0566
 XXYZ=              0.0000 YYXZ=              0.0000 ZZXY=              0.0000
 N-N= 3.870153723293D+03 E-N=-1.057818410473D+04  KE= 9.529898314528D+02
 No NMR shielding tensors so no spin-rotation constants.
 Leave Link  601 at Sun Jan 10 21:06:20 2021, MaxMem=   262144000 cpu:         2.9
 (Enter /home/palacios/Gaussian09/intel/v.D01/g09/l9999.exe)
 1\1\GINC-COMPUTE-1-4\SP\RSVWN\Gen\Ag28\PALACIOS\10-Jan-2021\0\\#p lsda
 /gen pseudo=read Scf=(conver=5,nodamp) symmetry=none\\Ag9-Ag4-Ag-Ag-Ag
 4-Ag9\\0,1\Ag,0,-8.000042,0.,-4.000021\Ag,0,-8.000042,4.000021,0.\Ag,0
 ,-8.000042,0.,0.\Ag,0,-8.000042,2.000011,-2.000011\Ag,0,-8.000042,-2.0
 00011,-2.000011\Ag,0,-8.000042,2.000011,2.000011\Ag,0,-8.000042,-4.000
 021,0.\Ag,0,-8.000042,-2.000011,2.000011\Ag,0,-8.000042,0.,4.000021\Ag
 ,0,-6.000032,0.,-2.000011\Ag,0,-6.000032,2.000011,0.\Ag,0,-6.000032,-2
 .000011,0.\Ag,0,-6.000032,0.,2.000011\Ag,0,-4.000021,0.,0.\Ag,0,4.0000
 21,0.,0.\Ag,0,6.000032,0.,-2.000011\Ag,0,6.000032,2.000011,0.\Ag,0,6.0
 00032,-2.000011,0.\Ag,0,6.000032,0.,2.000011\Ag,0,8.000042,0.,-4.00002
 1\Ag,0,8.000042,2.000011,-2.000011\Ag,0,8.000042,4.000021,0.\Ag,0,8.00
 0042,-2.000011,-2.000011\Ag,0,8.000042,2.000011,2.000011\Ag,0,8.000042
 ,-2.000011,2.000011\Ag,0,8.000042,0.,0.\Ag,0,8.000042,-4.000021,0.\Ag,
 0,8.000042,0.,4.000021\\Version=ES64L-G09RevD.01\HF=-1084.0850452\RMSD
 =2.798e-06\Dipole=0.,0.,0.\Quadrupole=-231.8828563,115.9414229,115.941
 4333,-0.0000034,0.0000034,0.\PG=Unknown\\@


 SOME PHYSICISTS WOULD PREFER TO COME BACK TO THE IDEA OF AN OBJECTIVE
 REAL WORLD WHOSE SMALLEST PARTS EXIST OBJECTIVELY IN THE SAME SENSE AS
 STONES OR TREES EXIST INDEPENDENTLY OF WHETHER WE OBSERVE THEM.
 THIS, HOWEVER, IS IMPOSSIBLE.  -- WERNER HEISENBERG
 Job cpu time:       0 days  0 hours 31 minutes 24.6 seconds.
 File lengths (MBytes):  RWF=     35 Int=      0 D2E=      0 Chk=      3 Scr=      1
 Normal termination of Gaussian 09 at Sun Jan 10 21:06:20 2021.
