 Entering Gaussian System, Link 0=g09
 Input=Au-Au-Au-Au-Au-Au.gjf
 Output=Au-Au-Au-Au-Au-Au.log
 Initial command:
 /home/palacios/gaussian/g09/l1.exe "/home/palacios/scratch/Gau-15809.inp" -scrdir="/home/palacios/scratch/"
 Entering Link 1 = /home/palacios/gaussian/g09/l1.exe PID=     15811.
  
 Copyright (c) 1988,1990,1992,1993,1995,1998,2003,2009,2013,
            Gaussian, Inc.  All Rights Reserved.
  
 This is part of the Gaussian(R) 09 program.  It is based on
 the Gaussian(R) 03 system (copyright 2003, Gaussian, Inc.),
 the Gaussian(R) 98 system (copyright 1998, Gaussian, Inc.),
 the Gaussian(R) 94 system (copyright 1995, Gaussian, Inc.),
 the Gaussian 92(TM) system (copyright 1992, Gaussian, Inc.),
 the Gaussian 90(TM) system (copyright 1990, Gaussian, Inc.),
 the Gaussian 88(TM) system (copyright 1988, Gaussian, Inc.),
 the Gaussian 86(TM) system (copyright 1986, Carnegie Mellon
 University), and the Gaussian 82(TM) system (copyright 1983,
 Carnegie Mellon University). Gaussian is a federally registered
 trademark of Gaussian, Inc.
  
 This software contains proprietary and confidential information,
 including trade secrets, belonging to Gaussian, Inc.
  
 This software is provided under written license and may be
 used, copied, transmitted, or stored only in accord with that
 written license.
  
 The following legend is applicable only to US Government
 contracts under FAR:
  
                    RESTRICTED RIGHTS LEGEND
  
 Use, reproduction and disclosure by the US Government is
 subject to restrictions as set forth in subparagraphs (a)
 and (c) of the Commercial Computer Software - Restricted
 Rights clause in FAR 52.227-19.
  
 Gaussian, Inc.
 340 Quinnipiac St., Bldg. 40, Wallingford CT 06492
  
  
 ---------------------------------------------------------------
 Warning -- This program may not be used in any manner that
 competes with the business of Gaussian, Inc. or will provide
 assistance to any competitor of Gaussian, Inc.  The licensee
 of this program is prohibited from giving any competitor of
 Gaussian, Inc. access to this program.  By using this program,
 the user acknowledges that Gaussian, Inc. is engaged in the
 business of creating and licensing software in the field of
 computational chemistry and represents and warrants to the
 licensee that it is not a competitor of Gaussian, Inc. and that
 it will not use this program in any manner prohibited above.
 ---------------------------------------------------------------
  

 Cite this work as:
 Gaussian 09, Revision D.01,
 M. J. Frisch, G. W. Trucks, H. B. Schlegel, G. E. Scuseria, 
 M. A. Robb, J. R. Cheeseman, G. Scalmani, V. Barone, B. Mennucci, 
 G. A. Petersson, H. Nakatsuji, M. Caricato, X. Li, H. P. Hratchian, 
 A. F. Izmaylov, J. Bloino, G. Zheng, J. L. Sonnenberg, M. Hada, 
 M. Ehara, K. Toyota, R. Fukuda, J. Hasegawa, M. Ishida, T. Nakajima, 
 Y. Honda, O. Kitao, H. Nakai, T. Vreven, J. A. Montgomery, Jr., 
 J. E. Peralta, F. Ogliaro, M. Bearpark, J. J. Heyd, E. Brothers, 
 K. N. Kudin, V. N. Staroverov, T. Keith, R. Kobayashi, J. Normand, 
 K. Raghavachari, A. Rendell, J. C. Burant, S. S. Iyengar, J. Tomasi, 
 M. Cossi, N. Rega, J. M. Millam, M. Klene, J. E. Knox, J. B. Cross, 
 V. Bakken, C. Adamo, J. Jaramillo, R. Gomperts, R. E. Stratmann, 
 O. Yazyev, A. J. Austin, R. Cammi, C. Pomelli, J. W. Ochterski, 
 R. L. Martin, K. Morokuma, V. G. Zakrzewski, G. A. Voth, 
 P. Salvador, J. J. Dannenberg, S. Dapprich, A. D. Daniels, 
 O. Farkas, J. B. Foresman, J. V. Ortiz, J. Cioslowski, 
 and D. J. Fox, Gaussian, Inc., Wallingford CT, 2013.
 
 ******************************************
 Gaussian 09:  ES64L-G09RevD.01 24-Apr-2013
                19-Apr-2021 
 ******************************************
 %mem=250mb
 %Subst L502 ../../bin
 %Subst L101 ../../bin
 %NProcShared=1
 Will use up to    1 processors via shared memory.
 ----------------------------------------------------------------------
 #p lsda/gen pseudo=read gfinput Scf=(dsymm,conver=6,nodamp,maxcycle=10
 0)
 ----------------------------------------------------------------------
 1/38=1/1;
 2/12=2,17=6,18=5,40=1/2;
 3/5=7,11=2,16=1,17=8,24=10,25=1,30=1,74=205/1,2,3;
 4//1;
 5/5=2,6=6,7=100,17=200,18=-2,38=5/2;
 6/7=2,8=2,9=2,10=2,28=1/1;
 99/5=1,9=1/99;
 Leave Link    1 at Mon Apr 19 14:08:32 2021, MaxMem=    32768000 cpu:         0.0
 (Enter ../../bin/l101.exe)
 -----------------
 Au-Au-Au-Au-Au-Au
 -----------------
 Symbolic Z-matrix:
 Charge =  0 Multiplicity = 1
 Au                    0.        0.        0. 
 Au                    0.        0.        3. 
 Au                    0.        0.        6. 
 Au                    0.        0.        9. 
 Au                    0.        0.        12. 
 Au                    0.        0.        15. 
 
 NAtoms=      6 NQM=        6 NQMF=       0 NMMI=      0 NMMIF=      0
                NMic=       0 NMicF=      0.
                    Isotopes and Nuclear Properties:
 (Nuclear quadrupole moments (NQMom) in fm**2, nuclear magnetic moments (NMagM)
  in nuclear magnetons)

  Atom         1           2           3           4           5           6
 IAtWgt=         197         197         197         197         197         197
 AtmWgt= 196.9666000 196.9666000 196.9666000 196.9666000 196.9666000 196.9666000
 NucSpn=           3           3           3           3           3           3
 AtZEff=   0.0000000   0.0000000   0.0000000   0.0000000   0.0000000   0.0000000
 NQMom=   54.7000000  54.7000000  54.7000000  54.7000000  54.7000000  54.7000000
 NMagM=    0.1481590   0.1481590   0.1481590   0.1481590   0.1481590   0.1481590
 AtZNuc=  79.0000000  79.0000000  79.0000000  79.0000000  79.0000000  79.0000000
 Leave Link  101 at Mon Apr 19 14:08:33 2021, MaxMem=    32768000 cpu:         0.1
 (Enter /home/palacios/gaussian/g09/l202.exe)
                          Input orientation:                          
 ---------------------------------------------------------------------
 Center     Atomic      Atomic             Coordinates (Angstroms)
 Number     Number       Type             X           Y           Z
 ---------------------------------------------------------------------
      1         79           0        0.000000    0.000000    0.000000
      2         79           0        0.000000    0.000000    3.000000
      3         79           0        0.000000    0.000000    6.000000
      4         79           0        0.000000    0.000000    9.000000
      5         79           0        0.000000    0.000000   12.000000
      6         79           0        0.000000    0.000000   15.000000
 ---------------------------------------------------------------------
                    Distance matrix (angstroms):
                    1          2          3          4          5
     1  Au   0.000000
     2  Au   3.000000   0.000000
     3  Au   6.000000   3.000000   0.000000
     4  Au   9.000000   6.000000   3.000000   0.000000
     5  Au  12.000000   9.000000   6.000000   3.000000   0.000000
     6  Au  15.000000  12.000000   9.000000   6.000000   3.000000
                    6
     6  Au   0.000000
 Stoichiometry    Au6
 Framework group  D*H[C*(AuAuAu.AuAuAu)]
 Deg. of freedom     3
 Full point group                 D*H     NOp   8
 Largest Abelian subgroup         D2H     NOp   8
 Largest concise Abelian subgroup C2      NOp   2
                         Standard orientation:                         
 ---------------------------------------------------------------------
 Center     Atomic      Atomic             Coordinates (Angstroms)
 Number     Number       Type             X           Y           Z
 ---------------------------------------------------------------------
      1         79           0        0.000000    0.000000    7.500000
      2         79           0        0.000000    0.000000    4.500000
      3         79           0        0.000000    0.000000    1.500000
      4         79           0        0.000000    0.000000   -1.500000
      5         79           0        0.000000    0.000000   -4.500000
      6         79           0        0.000000    0.000000   -7.500000
 ---------------------------------------------------------------------
 Rotational constants (GHZ):      0.0000000      0.0162909      0.0162909
 Leave Link  202 at Mon Apr 19 14:08:33 2021, MaxMem=    32768000 cpu:         0.0
 (Enter /home/palacios/gaussian/g09/l301.exe)
 General basis read from cards:  (5D, 7F)
 Centers:       1      2      3      4      5      6
 S 3 1.00
     Exponent=  4.4090000000D-01 Coefficients= -7.4780000000D-01
     Exponent=  2.6260000000D-01 Coefficients=  8.1760000000D-01
     Exponent=  6.1700000000D-02 Coefficients=  8.1130000000D-01
 ****
 ======================================================================================================
                                       Pseudopotential Parameters
 ======================================================================================================
  Center     Atomic      Valence      Angular      Power
  Number     Number     Electrons     Momentum     of R      Exponent        Coefficient   SO-Coeffient
 ======================================================================================================
    1         79            1
                                      F and up 
                                                     2        1.0000000        0.00000000    0.00000000
                                      S - F
                                                     2        0.9000000       12.02000000    0.00000000
                                                     2        0.4500000       -2.88400000    0.00000000
                                      P - F
                                                     2        0.9000000       -2.81500000    0.00000000
                                                     2        0.4500000        1.97900000    0.00000000
                                      D - F
                                                     2        0.4500000       57.03000000    0.00000000
                                                     2        0.2250000       -3.46800000    0.00000000
    2         79            1
                                      F and up 
                                                     2        1.0000000        0.00000000    0.00000000
                                      S - F
                                                     2        0.9000000       12.02000000    0.00000000
                                                     2        0.4500000       -2.88400000    0.00000000
                                      P - F
                                                     2        0.9000000       -2.81500000    0.00000000
                                                     2        0.4500000        1.97900000    0.00000000
                                      D - F
                                                     2        0.4500000       57.03000000    0.00000000
                                                     2        0.2250000       -3.46800000    0.00000000
    3         79            1
                                      F and up 
                                                     2        1.0000000        0.00000000    0.00000000
                                      S - F
                                                     2        0.9000000       12.02000000    0.00000000
                                                     2        0.4500000       -2.88400000    0.00000000
                                      P - F
                                                     2        0.9000000       -2.81500000    0.00000000
                                                     2        0.4500000        1.97900000    0.00000000
                                      D - F
                                                     2        0.4500000       57.03000000    0.00000000
                                                     2        0.2250000       -3.46800000    0.00000000
    4         79            1
                                      F and up 
                                                     2        1.0000000        0.00000000    0.00000000
                                      S - F
                                                     2        0.9000000       12.02000000    0.00000000
                                                     2        0.4500000       -2.88400000    0.00000000
                                      P - F
                                                     2        0.9000000       -2.81500000    0.00000000
                                                     2        0.4500000        1.97900000    0.00000000
                                      D - F
                                                     2        0.4500000       57.03000000    0.00000000
                                                     2        0.2250000       -3.46800000    0.00000000
    5         79            1
                                      F and up 
                                                     2        1.0000000        0.00000000    0.00000000
                                      S - F
                                                     2        0.9000000       12.02000000    0.00000000
                                                     2        0.4500000       -2.88400000    0.00000000
                                      P - F
                                                     2        0.9000000       -2.81500000    0.00000000
                                                     2        0.4500000        1.97900000    0.00000000
                                      D - F
                                                     2        0.4500000       57.03000000    0.00000000
                                                     2        0.2250000       -3.46800000    0.00000000
    6         79            1
                                      F and up 
                                                     2        1.0000000        0.00000000    0.00000000
                                      S - F
                                                     2        0.9000000       12.02000000    0.00000000
                                                     2        0.4500000       -2.88400000    0.00000000
                                      P - F
                                                     2        0.9000000       -2.81500000    0.00000000
                                                     2        0.4500000        1.97900000    0.00000000
                                      D - F
                                                     2        0.4500000       57.03000000    0.00000000
                                                     2        0.2250000       -3.46800000    0.00000000
 ======================================================================================================
 Ernie: Thresh=  0.10000D-02 Tol=  0.10000D-05 Strict=F.
 AO basis set in the form of general basis input (Overlap normalization):
      1 0
 S   3 1.00       0.000000000000
      0.4409000000D+00 -0.7477982533D+00
      0.2626000000D+00  0.8175980902D+00
      0.6170000000D-01  0.8112981050D+00
 ****
      2 0
 S   3 1.00       0.000000000000
      0.4409000000D+00 -0.7477982533D+00
      0.2626000000D+00  0.8175980902D+00
      0.6170000000D-01  0.8112981050D+00
 ****
      3 0
 S   3 1.00       0.000000000000
      0.4409000000D+00 -0.7477982533D+00
      0.2626000000D+00  0.8175980902D+00
      0.6170000000D-01  0.8112981050D+00
 ****
      4 0
 S   3 1.00       0.000000000000
      0.4409000000D+00 -0.7477982533D+00
      0.2626000000D+00  0.8175980902D+00
      0.6170000000D-01  0.8112981050D+00
 ****
      5 0
 S   3 1.00       0.000000000000
      0.4409000000D+00 -0.7477982533D+00
      0.2626000000D+00  0.8175980902D+00
      0.6170000000D-01  0.8112981050D+00
 ****
      6 0
 S   3 1.00       0.000000000000
      0.4409000000D+00 -0.7477982533D+00
      0.2626000000D+00  0.8175980902D+00
      0.6170000000D-01  0.8112981050D+00
 ****

 There are     3 symmetry adapted cartesian basis functions of AG  symmetry.
 There are     0 symmetry adapted cartesian basis functions of B1G symmetry.
 There are     0 symmetry adapted cartesian basis functions of B2G symmetry.
 There are     0 symmetry adapted cartesian basis functions of B3G symmetry.
 There are     0 symmetry adapted cartesian basis functions of AU  symmetry.
 There are     3 symmetry adapted cartesian basis functions of B1U symmetry.
 There are     0 symmetry adapted cartesian basis functions of B2U symmetry.
 There are     0 symmetry adapted cartesian basis functions of B3U symmetry.
 There are     3 symmetry adapted basis functions of AG  symmetry.
 There are     0 symmetry adapted basis functions of B1G symmetry.
 There are     0 symmetry adapted basis functions of B2G symmetry.
 There are     0 symmetry adapted basis functions of B3G symmetry.
 There are     0 symmetry adapted basis functions of AU  symmetry.
 There are     3 symmetry adapted basis functions of B1U symmetry.
 There are     0 symmetry adapted basis functions of B2U symmetry.
 There are     0 symmetry adapted basis functions of B3U symmetry.
     6 basis functions,    18 primitive gaussians,     6 cartesian basis functions
     3 alpha electrons        3 beta electrons
       nuclear repulsion energy         1.5346139049 Hartrees.
 IExCor=  205 DFT=T Ex=S Corr=VWN ExCW=0 ScaHFX=  0.000000
 ScaDFX=  1.000000  1.000000  1.000000  1.000000 ScalE2=  1.000000  1.000000
 IRadAn=      0 IRanWt=     -1 IRanGd=            0 ICorTp=0 IEmpDi=  4
 NAtoms=    6 NActive=    6 NUniq=    3 SFac= 4.00D+00 NAtFMM=   60 NAOKFM=F Big=F
 Integral buffers will be    131072 words long.
 Raffenetti 2 integral format.
 Two-electron integral symmetry is turned on.
 Leave Link  301 at Mon Apr 19 14:08:33 2021, MaxMem=    32768000 cpu:         0.0
 (Enter /home/palacios/gaussian/g09/l302.exe)
 NPDir=0 NMtPBC=     1 NCelOv=     1 NCel=       1 NClECP=     1 NCelD=      1
         NCelK=      1 NCelE2=     1 NClLst=     1 CellRange=     0.0.
 One-electron integrals computed using PRISM.
 One-electron integral symmetry used in STVInt
   8 Symmetry operations used in ECPInt.
 ECPInt:  NShTT=      21 NPrTT=     189 LenC2=      22 LenP2D=     174.
 LDataN:  DoStor=T MaxTD1= 3 Len=   28
 NBasis=     6 RedAO= T EigKep=  6.23D-01  NBF=     3     0     0     0     0     3     0     0
 NBsUse=     6 1.00D-06 EigRej= -1.00D+00 NBFU=     3     0     0     0     0     3     0     0
 Precomputing XC quadrature grid using
 IXCGrd= 4 IRadAn=           0 IRanWt=          -1 IRanGd=           0 AccXCQ= 0.00D+00.
 Defaulting to unpruned grid for atomic number  79.
 Generated NRdTot=       0 NPtTot=           0 NUsed=           0 NTot=          32
 NSgBfM=     6     6     6     6     6 MxSgAt=     6 MxSgA2=     6.
 Leave Link  302 at Mon Apr 19 14:08:33 2021, MaxMem=    32768000 cpu:         0.1
 (Enter /home/palacios/gaussian/g09/l303.exe)
 DipDrv:  MaxL=1.
 Leave Link  303 at Mon Apr 19 14:08:33 2021, MaxMem=    32768000 cpu:         0.0
 (Enter /home/palacios/gaussian/g09/l401.exe)
 ExpMin= 6.17D-02 ExpMax= 4.41D-01 ExpMxC= 4.41D-01 IAcc=2 IRadAn=         4 AccDes= 0.00D+00
 Harris functional with IExCor=  205 and IRadAn=       4 diagonalized for initial guess.
 HarFok:  IExCor=  205 AccDes= 0.00D+00 IRadAn=         4 IDoV= 1 UseB2=F ITyADJ=14
 ICtDFT=  3500011 ScaDFX=  1.000000  1.000000  1.000000  1.000000
 Defaulting to unpruned grid for atomic number  79.
 FoFCou: FMM=F IPFlag=           0 FMFlag=      100000 FMFlg1=           0
         NFxFlg=           0 DoJE=T BraDBF=F KetDBF=T FulRan=T
         wScrn=  0.000000 ICntrl=     500 IOpCl=  0 I1Cent=   200000004 NGrid=           0
         NMat0=    1 NMatS0=      1 NMatT0=    0 NMatD0=    1 NMtDS0=    0 NMtDT0=    0
 Petite list used in FoFCou.
 Harris En= -1.34578197862456    
 JPrj=0 DoOrth=F DoCkMO=F.
 Initial guess orbital symmetries:
       Occupied  (SGG) (SGU) (SGG)
       Virtual   (SGU) (SGG) (SGU)
 The electronic state of the initial guess is 1-SGG.
 Leave Link  401 at Mon Apr 19 14:08:33 2021, MaxMem=    32768000 cpu:         0.1
 (Enter ../../bin/l502.exe)
 Closed shell SCF:
 Using DIIS extrapolation, IDIIS=  1040.
 Integral symmetry usage will be decided dynamically.
 Keep J ints in memory in symmetry-blocked form, NReq=856516.
 IVT=       13701 IEndB=       13701 NGot=    32768000 MDV=    32753805
 LenX=    32753805 LenY=    32752923
 Requested convergence on RMS density matrix=1.00D-06 within 100 cycles.
 Requested convergence on MAX density matrix=1.00D-04.
 Requested convergence on             energy=1.00D-04.
 No special actions if energy rises.
 FoFCou: FMM=F IPFlag=           0 FMFlag=           0 FMFlg1=           0
         NFxFlg=           0 DoJE=F BraDBF=F KetDBF=F FulRan=T
         wScrn=  0.000000 ICntrl=     600 IOpCl=  0 I1Cent=           0 NGrid=           0
         NMat0=    1 NMatS0=     21 NMatT0=    0 NMatD0=    1 NMtDS0=    0 NMtDT0=    0
 Petite list used in FoFCou.

 Cycle   1  Pass 0  IDiag  1:
 
  ****************************************************************** 
  ***                                                            *** 
  ***                      A l i c a n t e                       *** 
  ***                      N a n o                               *** 
  ***                      T r a n s p o r t                     *** 
  ***                      G 0 9                                 *** 
  ***                                                            *** 
  ****************************************************************** 
  ***                     Version: 2.5.2                         *** 
  ****************************************************************** 
  *  Copyright (c) by                                              * 
  *                                                                * 
  *  Juan Jose Palacios (1)                                        * 
  *  David Jacob (2)                                               * 
  *  Maria Soriano (1,5)                                           * 
  *  Angel J. Perez-Jimenez (3)                                    * 
  *  Emilio SanFabian (3)                                          * 
  *  Jose Antonio Antonio Verges (4)                               * 
  *  Enrique Louis (5)                                             * 
  *  Wynand Dednam (5)                                             * 
  *                                                                * 
  * (1) Departamento de Fisica de la Materia Condensada            * 
  *     Universidad Autonoma de Madrid                             * 
  *     28049 Madrid (SPAIN)                                       * 
  * (2) Theory Department                                          * 
  *     Max-Planck-Institute for Microstructure Physics            * 
  *     Halle, 06120 (GERMANY)                                     * 
  * (3) Departamento de Quimica Fisica                             * 
  *     Universidad de Alicante                                    * 
  *     03690 Alicante (SPAIN)                                     * 
  * (4) Insto. de Ciencias de Materiales de Madrid (ICMM)          * 
  *     Consejo Superior de Investigacion y Ciencia (CSIC)         * 
  *     28049 Madrid (SPAIN)                                       * 
  * (5) Departamento de Fisica Aplicada                            * 
  *     Universidad de Alicante                                    * 
  *     03690 Alicante (SPAIN)                                     * 
  *                                                                * 
  ****************************************************************** 
 
  ****************************************************************** 
  *                                                                * 
  *              Initializing ANT.G09 modules                      * 
  *                                                                * 
  ****************************************************************** 
 
 Scanning Au-Au-Au-Au-Au-Au.ant file for parameter specifications...
 Done.
 ****************************
 Basic calculation parameters
 ****************************
 ALPHA      =    2.9999999999999999E-002
 NPULAY     =                         4
 CHARGEACC  =    1.0000000000000000E-004  %
 FERMIACC   =    1.0000000000000000E-004  %
 PACC       =    9.9999999999999995E-008  %
 FULLACC    =   F
 MAX        =                        10
 SELFACC    =    9.9999999999999995E-007
 SMALL      =    0.1000000000000000     
 SMALLD     =    0.1000000000000000       A
 BIASVOLT   =     0.000000000000000       V
 QEXCESS    =     0.000000000000000      electrons
 ETA        =    1.0000000000000000E-003
 GLUE       =     1.000000000000000     
 FERMISTART =    -5.000000000000000       eV
 SOC        =   F
 SOCFAC     =     0.000000000000000     
 SOC_CFF_P  =     0.000000000000000       eV
 SOC_CFF_D  =     0.000000000000000       eV
 SOC_CFF_F  =     0.000000000000000       eV
 ROT        =   F
 THETA      =     0.000000000000000       degrees
 PHI        =     0.000000000000000       degrees
 SL         =    1.0000000000000000E-002
 DMIMAG     =   F
 FMIXING    =   F
 ******************
 1D lead parameters
 ******************
 DEVFILE                                                                                             
  = 
 device.dev                                                                                          
 LEAD1FILE                                                                                           
  = 
 lead1.elc                                                                                           
 LEAD2FILE                                                                                           
  = 
 lead2.elc                                                                                           
 DEVXYZ                                                                                              
  = 
 device.xyz                                                                                          
 LEAD1XYZ                                                                                            
  = 
 lead1.xyz                                                                                           
 LEAD2XYZ                                                                                            
  = 
 lead2.xyz                                                                                           
 ************************
 Bethe lattice parameters
 ************************
 TYPE1      = 1DLEAD    
 TYPE2      = 1DLEAD    
 BLPAR1     = Papacon             
 BLPAR2     = Papacon             
 NEMBED1    =                         1
 NEMBED2    =                         1
 NPC        =                         3
 NATOMEL1   = ? 
 NATOMEL2   = ? 
 NBULKLEAD1 =                         1
 NBULKLEAD2 = ? 
 OVERLAP    =     0.000000000000000     
 *************************
 Spin transport parameters
 *************************
 SWOFFSPL   =    1.0000000000000000E-003
 NSPINLOCK  =                         0
 NALPHA     =                        -1
 NBETA      =                        -1
 DU         =   F
 UD         =   F
 DD         =   F
 MRSTART    =                         0
 SPINDEL    =   F
 SPINEDIT   =                         0
 SOCFACATOM =                         0
 SPINROTATO =                         0
 SOCEDIT    =                         0
 ***********************
 Correlations parameters
 ***********************
 CORRBLOCKS =                         0
 PORTHO     =   F
 HYBFUNC    =   F
 DFT+U      =   F
 DIAGCORRBL =   F
 *****************
 Output parameters
 *****************
 HAMILTON   =   F
 MULLIKEN   =   F
 HTRANSM    =   F
 ESTEP      =    1.0000000000000000E-002
 DOSENERGY  =     0.000000000000000     
 EW1        =    -6.000000000000000     
 EW2        =     6.000000000000000     
 LDOS_BEG   =                         1
 LDOS_END   =                         0
 RTM_BEG    =                         1
 RTM_END    =                         0
 NCHANNELS  =                         0
 LEADDOS    =   T
 ANT1D      =   F
 BULK1DLEAD =   F
 PRTHATOM   =                         1
 -------------------
 Initializing device
 -------------------
 ----------------------------------------------------------
 Analyzing cluster for the connection of the  Bethe Lattice
 ----------------------------------------------------------
 
 Atom type of lead 1: Au
 Atom type of lead 2: Au
 
    1   79   1.    1    1    1
    2   79   1.    1    2    2
    3   79   1.    1    3    3
    4   79   1.    1    4    4
    5   79   1.    1    5    5
    6   79   1.    1    6    6
 
  Center of charge:
   0.000000   0.000000   0.000000
 
                        3 nlead1
  Atoms in left electrode:                        3
   1  Au   0.000000   0.000000  14.172946
   2  Au   0.000000   0.000000   8.503768
   3  Au   0.000000   0.000000   2.834589
 
  Atoms in molecule:                        0
 
  Atoms in right electrode:                        3
   4  Au   0.000000   0.000000 -14.172946
   5  Au   0.000000   0.000000  -8.503768
   6  Au   0.000000   0.000000  -2.834589
 
 ---------------------------------------------------
  Details on device and contacting atoms -----------
 ---------------------------------------------------
 NEmbed(1) =                        1
 NEmbed(2) =                        1
 Number of electrons in neutral reduced device (NCDEl) =  
                        4
 First and last orbital in reduced device
 NCDAO1 =                         2
 NCDAO2 =                         5
 ---------------------------------------------------
 -------------------------------------------------------------------------------------------
 Starting calculation with density matrix from file  
 P.Au-Au-Au-Au-Au-Au.dat                           
 -------------------------------------------------------------------------------------------
 Tr[P*S] of initial guess =    5.878767136769477     
 --------------------------------
 Defaulting to unpruned grid for atomic number  79.
 E= -1.33369545695581    
 -------------------------------------------------------------------------
 Computing the density matrix at cycle:                        1
 -------------------------------------------------------------------------
 *******************************
 *    Initializing Lead No.                         1
 *******************************
 
 *** Supercell on-site and coupling matrices ***
 
 H0 = 
   -0.2999E+01   -0.2013E+01   -0.3508E-02
   -0.2013E+01   -0.2999E+01   -0.2013E+01
   -0.3508E-02   -0.2013E+01   -0.2999E+01
 V1 = 
   -0.4157E-03   -0.3508E-02   -0.2013E+01
    0.0000E+00   -0.4157E-03   -0.3508E-02
    0.0000E+00    0.0000E+00   -0.4157E-03
 S0 = 
    0.1000E+01    0.3206E+00    0.1336E-01
    0.3206E+00    0.1000E+01    0.3206E+00
    0.1336E-01    0.3206E+00    0.1000E+01
 S1 = 
    0.8807E-04    0.1336E-01    0.3206E+00
    0.0000E+00    0.8807E-04    0.1336E-01
    0.0000E+00    0.0000E+00    0.8807E-04
 
 *** Extended Supercell Matrices ***
 
 HX = 
   -2.9994E+00   -2.0127E+00   -3.5080E-03   -4.1568E-04    0.0000E+00    0.0000E+00    0.0000E+00
   -2.0127E+00   -2.9994E+00   -2.0127E+00   -3.5080E-03   -4.1568E-04    0.0000E+00    0.0000E+00
   -3.5080E-03   -2.0127E+00   -2.9994E+00   -2.0127E+00   -3.5080E-03   -4.1568E-04    0.0000E+00
   -4.1568E-04   -3.5080E-03   -2.0127E+00   -2.9994E+00   -2.0127E+00   -3.5080E-03   -4.1568E-04
    0.0000E+00   -4.1568E-04   -3.5080E-03   -2.0127E+00   -2.9994E+00   -2.0127E+00   -3.5080E-03
    0.0000E+00    0.0000E+00   -4.1568E-04   -3.5080E-03   -2.0127E+00   -2.9994E+00   -2.0127E+00
    0.0000E+00    0.0000E+00    0.0000E+00   -4.1568E-04   -3.5080E-03   -2.0127E+00   -2.9994E+00
 SX = 
    1.0000E+00    3.2057E-01    1.3357E-02    8.8068E-05    0.0000E+00    0.0000E+00    0.0000E+00
    3.2057E-01    1.0000E+00    3.2057E-01    1.3357E-02    8.8068E-05    0.0000E+00    0.0000E+00
    1.3357E-02    3.2057E-01    1.0000E+00    3.2057E-01    1.3357E-02    8.8068E-05    0.0000E+00
    8.8068E-05    1.3357E-02    3.2057E-01    1.0000E+00    3.2057E-01    1.3357E-02    8.8068E-05
    0.0000E+00    8.8068E-05    1.3357E-02    3.2057E-01    1.0000E+00    3.2057E-01    1.3357E-02
    0.0000E+00    0.0000E+00    8.8068E-05    1.3357E-02    3.2057E-01    1.0000E+00    3.2057E-01
    0.0000E+00    0.0000E+00    0.0000E+00    8.8068E-05    1.3357E-02    3.2057E-01    1.0000E+00
 GauLeg quadrature converged after                      127  steps.
 GauLeg quadrature converged after                      127  steps.
 GauLeg quadrature converged after                      255  steps.
 GauLeg quadrature converged after                       63  steps.
Searching optimum Emin and EMax such that DOS integrates to total number of spin-orbitals in the PC =   2.
 GauLeg quadrature converged after                      127  steps.
 GauLeg quadrature converged after                       63  steps.
 EMin=   -11.00000000000000        EMax=    15.00000000000000     
 Searching Fermi energy...
 Bisec Method
 GauLeg quadrature converged after                       63  steps.
 GauLeg quadrature converged after                       63  steps.
 GauLeg quadrature converged after                      255  steps.
 GauLeg quadrature converged after                      511  steps.
 GauLeg quadrature converged after                      127  steps.
 GauLeg quadrature converged after                      255  steps.
 GauLeg quadrature converged after                      255  steps.
 GauLeg quadrature converged after                      255  steps.
 GauLeg quadrature converged after                      255  steps.
 GauLeg quadrature converged after                      255  steps.
 GauLeg quadrature converged after                      255  steps.
 GauLeg quadrature converged after                      255  steps.
 GauLeg quadrature converged after                      255  steps.
 GauLeg quadrature converged after                      255  steps.
 GauLeg quadrature converged after                      255  steps.
 GauLeg quadrature converged after                      255  steps.
 EFermi in the bulk electrodes=    -3.073730245197803     
 Lead Hamiltonian shifted by -EFermi =     3.073730245197803     
 OneDLead/Warning: HX, SX, GX, Sigma1, Sigma2 could not be allocated.
 
 *** Extended Supercell Matrices ***
 
 HX = 
    7.4379E-02   -1.0273E+00    3.7548E-02   -1.4499E-04    0.0000E+00    0.0000E+00    0.0000E+00
   -1.0273E+00    7.4379E-02   -1.0273E+00    3.7548E-02   -1.4499E-04    0.0000E+00    0.0000E+00
    3.7548E-02   -1.0273E+00    7.4379E-02   -1.0273E+00    3.7548E-02   -1.4499E-04    0.0000E+00
   -1.4499E-04    3.7548E-02   -1.0273E+00    7.4379E-02   -1.0273E+00    3.7548E-02   -1.4499E-04
    0.0000E+00   -1.4499E-04    3.7548E-02   -1.0273E+00    7.4379E-02   -1.0273E+00    3.7548E-02
    0.0000E+00    0.0000E+00   -1.4499E-04    3.7548E-02   -1.0273E+00    7.4379E-02   -1.0273E+00
    0.0000E+00    0.0000E+00    0.0000E+00   -1.4499E-04    3.7548E-02   -1.0273E+00    7.4379E-02
 SX = 
    1.0000E+00    3.2057E-01    1.3357E-02    8.8068E-05    0.0000E+00    0.0000E+00    0.0000E+00
    3.2057E-01    1.0000E+00    3.2057E-01    1.3357E-02    8.8068E-05    0.0000E+00    0.0000E+00
    1.3357E-02    3.2057E-01    1.0000E+00    3.2057E-01    1.3357E-02    8.8068E-05    0.0000E+00
    8.8068E-05    1.3357E-02    3.2057E-01    1.0000E+00    3.2057E-01    1.3357E-02    8.8068E-05
    0.0000E+00    8.8068E-05    1.3357E-02    3.2057E-01    1.0000E+00    3.2057E-01    1.3357E-02
    0.0000E+00    0.0000E+00    8.8068E-05    1.3357E-02    3.2057E-01    1.0000E+00    3.2057E-01
    0.0000E+00    0.0000E+00    0.0000E+00    8.8068E-05    1.3357E-02    3.2057E-01    1.0000E+00
 
 *** Supercell on-site and coupling matrices ***
 
 H0 = 
    0.7438E-01   -0.1027E+01    0.3755E-01
   -0.1027E+01    0.7438E-01   -0.1027E+01
    0.3755E-01   -0.1027E+01    0.7438E-01
 V1 = 
   -0.1450E-03    0.3755E-01   -0.1027E+01
    0.0000E+00   -0.1450E-03    0.3755E-01
    0.0000E+00    0.0000E+00   -0.1450E-03
 S0 = 
    0.1000E+01    0.3206E+00    0.1336E-01
    0.3206E+00    0.1000E+01    0.3206E+00
    0.1336E-01    0.3206E+00    0.1000E+01
 S1 = 
    0.8807E-04    0.1336E-01    0.3206E+00
    0.0000E+00    0.8807E-04    0.1336E-01
    0.0000E+00    0.0000E+00    0.8807E-04
Printing DOS of Lead 1to file Lead1DOS.dat
 *******************************
 *    Initializing Lead No.                         2
 *******************************
 
 *** Supercell on-site and coupling matrices ***
 
 H0 = 
   -0.2999E+01   -0.2013E+01   -0.3508E-02
   -0.2013E+01   -0.2999E+01   -0.2013E+01
   -0.3508E-02   -0.2013E+01   -0.2999E+01
 V1 = 
   -0.4157E-03   -0.3508E-02   -0.2013E+01
    0.0000E+00   -0.4157E-03   -0.3508E-02
    0.0000E+00    0.0000E+00   -0.4157E-03
 S0 = 
    0.1000E+01    0.3206E+00    0.1336E-01
    0.3206E+00    0.1000E+01    0.3206E+00
    0.1336E-01    0.3206E+00    0.1000E+01
 S1 = 
    0.8807E-04    0.1336E-01    0.3206E+00
    0.0000E+00    0.8807E-04    0.1336E-01
    0.0000E+00    0.0000E+00    0.8807E-04
 
 *** Extended Supercell Matrices ***
 
 HX = 
   -2.9994E+00   -2.0127E+00   -3.5080E-03   -4.1568E-04    0.0000E+00    0.0000E+00    0.0000E+00
   -2.0127E+00   -2.9994E+00   -2.0127E+00   -3.5080E-03   -4.1568E-04    0.0000E+00    0.0000E+00
   -3.5080E-03   -2.0127E+00   -2.9994E+00   -2.0127E+00   -3.5080E-03   -4.1568E-04    0.0000E+00
   -4.1568E-04   -3.5080E-03   -2.0127E+00   -2.9994E+00   -2.0127E+00   -3.5080E-03   -4.1568E-04
    0.0000E+00   -4.1568E-04   -3.5080E-03   -2.0127E+00   -2.9994E+00   -2.0127E+00   -3.5080E-03
    0.0000E+00    0.0000E+00   -4.1568E-04   -3.5080E-03   -2.0127E+00   -2.9994E+00   -2.0127E+00
    0.0000E+00    0.0000E+00    0.0000E+00   -4.1568E-04   -3.5080E-03   -2.0127E+00   -2.9994E+00
 SX = 
    1.0000E+00    3.2057E-01    1.3357E-02    8.8068E-05    0.0000E+00    0.0000E+00    0.0000E+00
    3.2057E-01    1.0000E+00    3.2057E-01    1.3357E-02    8.8068E-05    0.0000E+00    0.0000E+00
    1.3357E-02    3.2057E-01    1.0000E+00    3.2057E-01    1.3357E-02    8.8068E-05    0.0000E+00
    8.8068E-05    1.3357E-02    3.2057E-01    1.0000E+00    3.2057E-01    1.3357E-02    8.8068E-05
    0.0000E+00    8.8068E-05    1.3357E-02    3.2057E-01    1.0000E+00    3.2057E-01    1.3357E-02
    0.0000E+00    0.0000E+00    8.8068E-05    1.3357E-02    3.2057E-01    1.0000E+00    3.2057E-01
    0.0000E+00    0.0000E+00    0.0000E+00    8.8068E-05    1.3357E-02    3.2057E-01    1.0000E+00
 GauLeg quadrature converged after                      127  steps.
 GauLeg quadrature converged after                      127  steps.
 GauLeg quadrature converged after                      255  steps.
 GauLeg quadrature converged after                       63  steps.
Searching optimum Emin and EMax such that DOS integrates to total number of spin-orbitals in the PC =   2.
 GauLeg quadrature converged after                      127  steps.
 GauLeg quadrature converged after                       63  steps.
 EMin=   -11.00000000000000        EMax=    15.00000000000000     
 Searching Fermi energy...
 Bisec Method
 GauLeg quadrature converged after                       63  steps.
 GauLeg quadrature converged after                       63  steps.
 GauLeg quadrature converged after                      255  steps.
 GauLeg quadrature converged after                      511  steps.
 GauLeg quadrature converged after                      127  steps.
 GauLeg quadrature converged after                      255  steps.
 GauLeg quadrature converged after                      255  steps.
 GauLeg quadrature converged after                      255  steps.
 GauLeg quadrature converged after                      255  steps.
 GauLeg quadrature converged after                      255  steps.
 GauLeg quadrature converged after                      255  steps.
 GauLeg quadrature converged after                      255  steps.
 GauLeg quadrature converged after                      255  steps.
 GauLeg quadrature converged after                      255  steps.
 GauLeg quadrature converged after                      255  steps.
 GauLeg quadrature converged after                      255  steps.
 EFermi in the bulk electrodes=    -3.073730245197799     
 Lead Hamiltonian shifted by -EFermi =     3.073730245197799     
 OneDLead/Warning: HX, SX, GX, Sigma1, Sigma2 could not be allocated.
 
 *** Extended Supercell Matrices ***
 
 HX = 
    7.4379E-02   -1.0273E+00    3.7548E-02   -1.4499E-04    0.0000E+00    0.0000E+00    0.0000E+00
   -1.0273E+00    7.4379E-02   -1.0273E+00    3.7548E-02   -1.4499E-04    0.0000E+00    0.0000E+00
    3.7548E-02   -1.0273E+00    7.4379E-02   -1.0273E+00    3.7548E-02   -1.4499E-04    0.0000E+00
   -1.4499E-04    3.7548E-02   -1.0273E+00    7.4379E-02   -1.0273E+00    3.7548E-02   -1.4499E-04
    0.0000E+00   -1.4499E-04    3.7548E-02   -1.0273E+00    7.4379E-02   -1.0273E+00    3.7548E-02
    0.0000E+00    0.0000E+00   -1.4499E-04    3.7548E-02   -1.0273E+00    7.4379E-02   -1.0273E+00
    0.0000E+00    0.0000E+00    0.0000E+00   -1.4499E-04    3.7548E-02   -1.0273E+00    7.4379E-02
 SX = 
    1.0000E+00    3.2057E-01    1.3357E-02    8.8068E-05    0.0000E+00    0.0000E+00    0.0000E+00
    3.2057E-01    1.0000E+00    3.2057E-01    1.3357E-02    8.8068E-05    0.0000E+00    0.0000E+00
    1.3357E-02    3.2057E-01    1.0000E+00    3.2057E-01    1.3357E-02    8.8068E-05    0.0000E+00
    8.8068E-05    1.3357E-02    3.2057E-01    1.0000E+00    3.2057E-01    1.3357E-02    8.8068E-05
    0.0000E+00    8.8068E-05    1.3357E-02    3.2057E-01    1.0000E+00    3.2057E-01    1.3357E-02
    0.0000E+00    0.0000E+00    8.8068E-05    1.3357E-02    3.2057E-01    1.0000E+00    3.2057E-01
    0.0000E+00    0.0000E+00    0.0000E+00    8.8068E-05    1.3357E-02    3.2057E-01    1.0000E+00
 
 *** Supercell on-site and coupling matrices ***
 
 H0 = 
    0.7438E-01   -0.1027E+01    0.3755E-01
   -0.1027E+01    0.7438E-01   -0.1027E+01
    0.3755E-01   -0.1027E+01    0.7438E-01
 V1 = 
   -0.1450E-03    0.3755E-01   -0.1027E+01
    0.0000E+00   -0.1450E-03    0.3755E-01
    0.0000E+00    0.0000E+00   -0.1450E-03
 S0 = 
    0.1000E+01    0.3206E+00    0.1336E-01
    0.3206E+00    0.1000E+01    0.3206E+00
    0.1336E-01    0.3206E+00    0.1000E+01
 S1 = 
    0.8807E-04    0.1336E-01    0.3206E+00
    0.0000E+00    0.8807E-04    0.1336E-01
    0.0000E+00    0.0000E+00    0.8807E-04
Printing DOS of Lead 2to file Lead2DOS.dat
 --------------------
 Initial Energy Bounds
 --------------------
 EMin=   -6.870521901562558     
 EMax=    6.870521901562558     
 -----------------------
  Total DOS Point Check 
 -----------------------
 Searching energy boundaries [EMin, EMax] such that
 Total Integrated Spectral Weight (TISW)=   8
 gaussian quadrature converged after                       15  steps. Error: 
   3.7990446224345220E-003
 EMin=         -6.871  EMax=          6.871  TISW=     7.99250
 --------------------------------------------------
 SECANT method
 Integration of the density matrix on the complex plane has needed   16 points
 Integration of the density matrix on the complex plane has needed   16 points
 Integration of the density matrix on the complex plane has needed   16 points
 Integration of the density matrix on the complex plane has needed   16 points
 Integration of the density matrix on the complex plane has needed   16 points
 -----------------------------------------------
 Fermi energy=  -2.90943  +/-  0.00012
 
 Number of alpha electrons:    2.00000
 Number of beta electrons:     2.00000
 Total number of electrons:     4.00000
 -----------------------------------------------
 DIIS: error= 2.44D-03 at cycle   1 NSaved=   1.
 NSaved= 1 IEnMin= 1 EnMin= -1.33369545695581     IErMin= 1 ErrMin= 2.44D-03
 ErrMax= 2.44D-03  0.00D+00 EMaxC= 1.00D-01 BMatC= 4.68D-05 BMatP= 4.68D-05
 IDIUse=3 WtCom= 9.76D-01 WtEn= 2.44D-02
 Coeff-Com:  0.100D+01
 Coeff-En:   0.100D+01
 Coeff:      0.100D+01
 RMSDP=5.88D-02 MaxDP=1.02D-01              OVMax= 0.00D+00

 Cycle   2  Pass 0  IDiag  1:
 E= -1.33369559128314     Delta-E=       -0.000000134327 Rises=F Damp=F
 -------------------------------------------------------------------------
 Computing the density matrix at cycle:                        2
 -------------------------------------------------------------------------
 *******************************
 *    Initializing Lead No.                         1
 *******************************
 
 *** Supercell on-site and coupling matrices ***
 
 H0 = 
   -0.2999E+01   -0.2013E+01   -0.3508E-02
   -0.2013E+01   -0.2999E+01   -0.2013E+01
   -0.3508E-02   -0.2013E+01   -0.2999E+01
 V1 = 
   -0.4157E-03   -0.3508E-02   -0.2013E+01
    0.0000E+00   -0.4157E-03   -0.3508E-02
    0.0000E+00    0.0000E+00   -0.4157E-03
 S0 = 
    0.1000E+01    0.3206E+00    0.1336E-01
    0.3206E+00    0.1000E+01    0.3206E+00
    0.1336E-01    0.3206E+00    0.1000E+01
 S1 = 
    0.8807E-04    0.1336E-01    0.3206E+00
    0.0000E+00    0.8807E-04    0.1336E-01
    0.0000E+00    0.0000E+00    0.8807E-04
 
 *** Extended Supercell Matrices ***
 
 HX = 
   -2.9993E+00   -2.0127E+00   -3.5080E-03   -4.1568E-04    0.0000E+00    0.0000E+00    0.0000E+00
   -2.0127E+00   -2.9993E+00   -2.0127E+00   -3.5080E-03   -4.1568E-04    0.0000E+00    0.0000E+00
   -3.5080E-03   -2.0127E+00   -2.9993E+00   -2.0127E+00   -3.5080E-03   -4.1568E-04    0.0000E+00
   -4.1568E-04   -3.5080E-03   -2.0127E+00   -2.9993E+00   -2.0127E+00   -3.5080E-03   -4.1568E-04
    0.0000E+00   -4.1568E-04   -3.5080E-03   -2.0127E+00   -2.9993E+00   -2.0127E+00   -3.5080E-03
    0.0000E+00    0.0000E+00   -4.1568E-04   -3.5080E-03   -2.0127E+00   -2.9993E+00   -2.0127E+00
    0.0000E+00    0.0000E+00    0.0000E+00   -4.1568E-04   -3.5080E-03   -2.0127E+00   -2.9993E+00
 SX = 
    1.0000E+00    3.2057E-01    1.3357E-02    8.8068E-05    0.0000E+00    0.0000E+00    0.0000E+00
    3.2057E-01    1.0000E+00    3.2057E-01    1.3357E-02    8.8068E-05    0.0000E+00    0.0000E+00
    1.3357E-02    3.2057E-01    1.0000E+00    3.2057E-01    1.3357E-02    8.8068E-05    0.0000E+00
    8.8068E-05    1.3357E-02    3.2057E-01    1.0000E+00    3.2057E-01    1.3357E-02    8.8068E-05
    0.0000E+00    8.8068E-05    1.3357E-02    3.2057E-01    1.0000E+00    3.2057E-01    1.3357E-02
    0.0000E+00    0.0000E+00    8.8068E-05    1.3357E-02    3.2057E-01    1.0000E+00    3.2057E-01
    0.0000E+00    0.0000E+00    0.0000E+00    8.8068E-05    1.3357E-02    3.2057E-01    1.0000E+00
 GauLeg quadrature converged after                      127  steps.
 GauLeg quadrature converged after                      127  steps.
 GauLeg quadrature converged after                      255  steps.
 GauLeg quadrature converged after                       63  steps.
Searching optimum Emin and EMax such that DOS integrates to total number of spin-orbitals in the PC =   2.
 GauLeg quadrature converged after                      127  steps.
 GauLeg quadrature converged after                       63  steps.
 EMin=   -11.00000000000000        EMax=    15.00000000000000     
 Searching Fermi energy...
 GauLeg quadrature converged after                      255  steps.
 GauLeg quadrature converged after                      255  steps.
 GauLeg quadrature converged after                      255  steps.
 GauLeg quadrature converged after                      255  steps.
 GauLeg quadrature converged after                      255  steps.
 EFermi in the bulk electrodes=    -3.073727581787296     
 Lead Hamiltonian shifted by -EFermi =     3.073727581787296     
 OneDLead/Warning: HX, SX, GX, Sigma1, Sigma2 could not be allocated.
 
 *** Extended Supercell Matrices ***
 
 HX = 
    7.4379E-02   -1.0273E+00    3.7548E-02   -1.4499E-04    0.0000E+00    0.0000E+00    0.0000E+00
   -1.0273E+00    7.4379E-02   -1.0273E+00    3.7548E-02   -1.4499E-04    0.0000E+00    0.0000E+00
    3.7548E-02   -1.0273E+00    7.4379E-02   -1.0273E+00    3.7548E-02   -1.4499E-04    0.0000E+00
   -1.4499E-04    3.7548E-02   -1.0273E+00    7.4379E-02   -1.0273E+00    3.7548E-02   -1.4499E-04
    0.0000E+00   -1.4499E-04    3.7548E-02   -1.0273E+00    7.4379E-02   -1.0273E+00    3.7548E-02
    0.0000E+00    0.0000E+00   -1.4499E-04    3.7548E-02   -1.0273E+00    7.4379E-02   -1.0273E+00
    0.0000E+00    0.0000E+00    0.0000E+00   -1.4499E-04    3.7548E-02   -1.0273E+00    7.4379E-02
 SX = 
    1.0000E+00    3.2057E-01    1.3357E-02    8.8068E-05    0.0000E+00    0.0000E+00    0.0000E+00
    3.2057E-01    1.0000E+00    3.2057E-01    1.3357E-02    8.8068E-05    0.0000E+00    0.0000E+00
    1.3357E-02    3.2057E-01    1.0000E+00    3.2057E-01    1.3357E-02    8.8068E-05    0.0000E+00
    8.8068E-05    1.3357E-02    3.2057E-01    1.0000E+00    3.2057E-01    1.3357E-02    8.8068E-05
    0.0000E+00    8.8068E-05    1.3357E-02    3.2057E-01    1.0000E+00    3.2057E-01    1.3357E-02
    0.0000E+00    0.0000E+00    8.8068E-05    1.3357E-02    3.2057E-01    1.0000E+00    3.2057E-01
    0.0000E+00    0.0000E+00    0.0000E+00    8.8068E-05    1.3357E-02    3.2057E-01    1.0000E+00
 
 *** Supercell on-site and coupling matrices ***
 
 H0 = 
    0.7438E-01   -0.1027E+01    0.3755E-01
   -0.1027E+01    0.7438E-01   -0.1027E+01
    0.3755E-01   -0.1027E+01    0.7438E-01
 V1 = 
   -0.1450E-03    0.3755E-01   -0.1027E+01
    0.0000E+00   -0.1450E-03    0.3755E-01
    0.0000E+00    0.0000E+00   -0.1450E-03
 S0 = 
    0.1000E+01    0.3206E+00    0.1336E-01
    0.3206E+00    0.1000E+01    0.3206E+00
    0.1336E-01    0.3206E+00    0.1000E+01
 S1 = 
    0.8807E-04    0.1336E-01    0.3206E+00
    0.0000E+00    0.8807E-04    0.1336E-01
    0.0000E+00    0.0000E+00    0.8807E-04
Printing DOS of Lead 1to file Lead1DOS.dat
 *******************************
 *    Initializing Lead No.                         2
 *******************************
 
 *** Supercell on-site and coupling matrices ***
 
 H0 = 
   -0.2999E+01   -0.2013E+01   -0.3508E-02
   -0.2013E+01   -0.2999E+01   -0.2013E+01
   -0.3508E-02   -0.2013E+01   -0.2999E+01
 V1 = 
   -0.4157E-03   -0.3508E-02   -0.2013E+01
    0.0000E+00   -0.4157E-03   -0.3508E-02
    0.0000E+00    0.0000E+00   -0.4157E-03
 S0 = 
    0.1000E+01    0.3206E+00    0.1336E-01
    0.3206E+00    0.1000E+01    0.3206E+00
    0.1336E-01    0.3206E+00    0.1000E+01
 S1 = 
    0.8807E-04    0.1336E-01    0.3206E+00
    0.0000E+00    0.8807E-04    0.1336E-01
    0.0000E+00    0.0000E+00    0.8807E-04
 
 *** Extended Supercell Matrices ***
 
 HX = 
   -2.9993E+00   -2.0127E+00   -3.5080E-03   -4.1568E-04    0.0000E+00    0.0000E+00    0.0000E+00
   -2.0127E+00   -2.9993E+00   -2.0127E+00   -3.5080E-03   -4.1568E-04    0.0000E+00    0.0000E+00
   -3.5080E-03   -2.0127E+00   -2.9993E+00   -2.0127E+00   -3.5080E-03   -4.1568E-04    0.0000E+00
   -4.1568E-04   -3.5080E-03   -2.0127E+00   -2.9993E+00   -2.0127E+00   -3.5080E-03   -4.1568E-04
    0.0000E+00   -4.1568E-04   -3.5080E-03   -2.0127E+00   -2.9993E+00   -2.0127E+00   -3.5080E-03
    0.0000E+00    0.0000E+00   -4.1568E-04   -3.5080E-03   -2.0127E+00   -2.9993E+00   -2.0127E+00
    0.0000E+00    0.0000E+00    0.0000E+00   -4.1568E-04   -3.5080E-03   -2.0127E+00   -2.9993E+00
 SX = 
    1.0000E+00    3.2057E-01    1.3357E-02    8.8068E-05    0.0000E+00    0.0000E+00    0.0000E+00
    3.2057E-01    1.0000E+00    3.2057E-01    1.3357E-02    8.8068E-05    0.0000E+00    0.0000E+00
    1.3357E-02    3.2057E-01    1.0000E+00    3.2057E-01    1.3357E-02    8.8068E-05    0.0000E+00
    8.8068E-05    1.3357E-02    3.2057E-01    1.0000E+00    3.2057E-01    1.3357E-02    8.8068E-05
    0.0000E+00    8.8068E-05    1.3357E-02    3.2057E-01    1.0000E+00    3.2057E-01    1.3357E-02
    0.0000E+00    0.0000E+00    8.8068E-05    1.3357E-02    3.2057E-01    1.0000E+00    3.2057E-01
    0.0000E+00    0.0000E+00    0.0000E+00    8.8068E-05    1.3357E-02    3.2057E-01    1.0000E+00
 GauLeg quadrature converged after                      127  steps.
 GauLeg quadrature converged after                      127  steps.
 GauLeg quadrature converged after                      255  steps.
 GauLeg quadrature converged after                       63  steps.
Searching optimum Emin and EMax such that DOS integrates to total number of spin-orbitals in the PC =   2.
 GauLeg quadrature converged after                      127  steps.
 GauLeg quadrature converged after                       63  steps.
 EMin=   -11.00000000000000        EMax=    15.00000000000000     
 Searching Fermi energy...
 GauLeg quadrature converged after                      255  steps.
 GauLeg quadrature converged after                      255  steps.
 GauLeg quadrature converged after                      255  steps.
 GauLeg quadrature converged after                      255  steps.
 GauLeg quadrature converged after                      255  steps.
 EFermi in the bulk electrodes=    -3.073727581787292     
 Lead Hamiltonian shifted by -EFermi =     3.073727581787292     
 OneDLead/Warning: HX, SX, GX, Sigma1, Sigma2 could not be allocated.
 
 *** Extended Supercell Matrices ***
 
 HX = 
    7.4379E-02   -1.0273E+00    3.7548E-02   -1.4499E-04    0.0000E+00    0.0000E+00    0.0000E+00
   -1.0273E+00    7.4379E-02   -1.0273E+00    3.7548E-02   -1.4499E-04    0.0000E+00    0.0000E+00
    3.7548E-02   -1.0273E+00    7.4379E-02   -1.0273E+00    3.7548E-02   -1.4499E-04    0.0000E+00
   -1.4499E-04    3.7548E-02   -1.0273E+00    7.4379E-02   -1.0273E+00    3.7548E-02   -1.4499E-04
    0.0000E+00   -1.4499E-04    3.7548E-02   -1.0273E+00    7.4379E-02   -1.0273E+00    3.7548E-02
    0.0000E+00    0.0000E+00   -1.4499E-04    3.7548E-02   -1.0273E+00    7.4379E-02   -1.0273E+00
    0.0000E+00    0.0000E+00    0.0000E+00   -1.4499E-04    3.7548E-02   -1.0273E+00    7.4379E-02
 SX = 
    1.0000E+00    3.2057E-01    1.3357E-02    8.8068E-05    0.0000E+00    0.0000E+00    0.0000E+00
    3.2057E-01    1.0000E+00    3.2057E-01    1.3357E-02    8.8068E-05    0.0000E+00    0.0000E+00
    1.3357E-02    3.2057E-01    1.0000E+00    3.2057E-01    1.3357E-02    8.8068E-05    0.0000E+00
    8.8068E-05    1.3357E-02    3.2057E-01    1.0000E+00    3.2057E-01    1.3357E-02    8.8068E-05
    0.0000E+00    8.8068E-05    1.3357E-02    3.2057E-01    1.0000E+00    3.2057E-01    1.3357E-02
    0.0000E+00    0.0000E+00    8.8068E-05    1.3357E-02    3.2057E-01    1.0000E+00    3.2057E-01
    0.0000E+00    0.0000E+00    0.0000E+00    8.8068E-05    1.3357E-02    3.2057E-01    1.0000E+00
 
 *** Supercell on-site and coupling matrices ***
 
 H0 = 
    0.7438E-01   -0.1027E+01    0.3755E-01
   -0.1027E+01    0.7438E-01   -0.1027E+01
    0.3755E-01   -0.1027E+01    0.7438E-01
 V1 = 
   -0.1450E-03    0.3755E-01   -0.1027E+01
    0.0000E+00   -0.1450E-03    0.3755E-01
    0.0000E+00    0.0000E+00   -0.1450E-03
 S0 = 
    0.1000E+01    0.3206E+00    0.1336E-01
    0.3206E+00    0.1000E+01    0.3206E+00
    0.1336E-01    0.3206E+00    0.1000E+01
 S1 = 
    0.8807E-04    0.1336E-01    0.3206E+00
    0.0000E+00    0.8807E-04    0.1336E-01
    0.0000E+00    0.0000E+00    0.8807E-04
Printing DOS of Lead 2to file Lead2DOS.dat
 --------------------
 Initial Energy Bounds
 --------------------
 EMin=   -6.870518973658321     
 EMax=    6.870518973658321     
 SECANT method
 Integration of the density matrix on the complex plane has needed   16 points
 Integration of the density matrix on the complex plane has needed   16 points
 Integration of the density matrix on the complex plane has needed   16 points
 Integration of the density matrix on the complex plane has needed   16 points
 Integration of the density matrix on the complex plane has needed   16 points
 -----------------------------------------------
 Fermi energy=  -2.90943  +/-  0.00012
 
 Number of alpha electrons:    2.00000
 Number of beta electrons:     2.00000
 Total number of electrons:     4.00000
 -----------------------------------------------
 RMSDP=2.49D-07 MaxDP=5.72D-07 DE=-1.34D-07 OVMax= 0.00D+00

 Initial convergence to 1.0D-05 achieved.  Increase integral accuracy.
 Cycle   3  Pass 1  IDiag  1:
 E= -1.33369571685704     Delta-E=       -0.000000125574 Rises=F Damp=F
 -------------------------------------------------------------------------
 Computing the density matrix at cycle:                        3
 -------------------------------------------------------------------------
 *******************************
 *    Initializing Lead No.                         1
 *******************************
 
 *** Supercell on-site and coupling matrices ***
 
 H0 = 
   -0.2999E+01   -0.2013E+01   -0.3508E-02
   -0.2013E+01   -0.2999E+01   -0.2013E+01
   -0.3508E-02   -0.2013E+01   -0.2999E+01
 V1 = 
   -0.4157E-03   -0.3508E-02   -0.2013E+01
    0.0000E+00   -0.4157E-03   -0.3508E-02
    0.0000E+00    0.0000E+00   -0.4157E-03
 S0 = 
    0.1000E+01    0.3206E+00    0.1336E-01
    0.3206E+00    0.1000E+01    0.3206E+00
    0.1336E-01    0.3206E+00    0.1000E+01
 S1 = 
    0.8807E-04    0.1336E-01    0.3206E+00
    0.0000E+00    0.8807E-04    0.1336E-01
    0.0000E+00    0.0000E+00    0.8807E-04
 
 *** Extended Supercell Matrices ***
 
 HX = 
   -2.9993E+00   -2.0127E+00   -3.5080E-03   -4.1568E-04    0.0000E+00    0.0000E+00    0.0000E+00
   -2.0127E+00   -2.9993E+00   -2.0127E+00   -3.5080E-03   -4.1568E-04    0.0000E+00    0.0000E+00
   -3.5080E-03   -2.0127E+00   -2.9993E+00   -2.0127E+00   -3.5080E-03   -4.1568E-04    0.0000E+00
   -4.1568E-04   -3.5080E-03   -2.0127E+00   -2.9993E+00   -2.0127E+00   -3.5080E-03   -4.1568E-04
    0.0000E+00   -4.1568E-04   -3.5080E-03   -2.0127E+00   -2.9993E+00   -2.0127E+00   -3.5080E-03
    0.0000E+00    0.0000E+00   -4.1568E-04   -3.5080E-03   -2.0127E+00   -2.9993E+00   -2.0127E+00
    0.0000E+00    0.0000E+00    0.0000E+00   -4.1568E-04   -3.5080E-03   -2.0127E+00   -2.9993E+00
 SX = 
    1.0000E+00    3.2057E-01    1.3357E-02    8.8068E-05    0.0000E+00    0.0000E+00    0.0000E+00
    3.2057E-01    1.0000E+00    3.2057E-01    1.3357E-02    8.8068E-05    0.0000E+00    0.0000E+00
    1.3357E-02    3.2057E-01    1.0000E+00    3.2057E-01    1.3357E-02    8.8068E-05    0.0000E+00
    8.8068E-05    1.3357E-02    3.2057E-01    1.0000E+00    3.2057E-01    1.3357E-02    8.8068E-05
    0.0000E+00    8.8068E-05    1.3357E-02    3.2057E-01    1.0000E+00    3.2057E-01    1.3357E-02
    0.0000E+00    0.0000E+00    8.8068E-05    1.3357E-02    3.2057E-01    1.0000E+00    3.2057E-01
    0.0000E+00    0.0000E+00    0.0000E+00    8.8068E-05    1.3357E-02    3.2057E-01    1.0000E+00
 GauLeg quadrature converged after                      255  steps.
 GauLeg quadrature converged after                      255  steps.
 GauLeg quadrature converged after                      511  steps.
 GauLeg quadrature converged after                      127  steps.
Searching optimum Emin and EMax such that DOS integrates to total number of spin-orbitals in the PC =   2.
 GauLeg quadrature converged after                      255  steps.
 GauLeg quadrature converged after                      127  steps.
 EMin=   -11.00000000000000        EMax=    15.00000000000000     
 Searching Fermi energy...
 GauLeg quadrature converged after                      255  steps.
 GauLeg quadrature converged after                      255  steps.
 GauLeg quadrature converged after                      255  steps.
 GauLeg quadrature converged after                      255  steps.
 GauLeg quadrature converged after                      255  steps.
 EFermi in the bulk electrodes=    -3.073725162885974     
 Lead Hamiltonian shifted by -EFermi =     3.073725162885974     
 OneDLead/Warning: HX, SX, GX, Sigma1, Sigma2 could not be allocated.
 
 *** Extended Supercell Matrices ***
 
 HX = 
    7.4379E-02   -1.0273E+00    3.7548E-02   -1.4499E-04    0.0000E+00    0.0000E+00    0.0000E+00
   -1.0273E+00    7.4379E-02   -1.0273E+00    3.7548E-02   -1.4499E-04    0.0000E+00    0.0000E+00
    3.7548E-02   -1.0273E+00    7.4379E-02   -1.0273E+00    3.7548E-02   -1.4499E-04    0.0000E+00
   -1.4499E-04    3.7548E-02   -1.0273E+00    7.4379E-02   -1.0273E+00    3.7548E-02   -1.4499E-04
    0.0000E+00   -1.4499E-04    3.7548E-02   -1.0273E+00    7.4379E-02   -1.0273E+00    3.7548E-02
    0.0000E+00    0.0000E+00   -1.4499E-04    3.7548E-02   -1.0273E+00    7.4379E-02   -1.0273E+00
    0.0000E+00    0.0000E+00    0.0000E+00   -1.4499E-04    3.7548E-02   -1.0273E+00    7.4379E-02
 SX = 
    1.0000E+00    3.2057E-01    1.3357E-02    8.8068E-05    0.0000E+00    0.0000E+00    0.0000E+00
    3.2057E-01    1.0000E+00    3.2057E-01    1.3357E-02    8.8068E-05    0.0000E+00    0.0000E+00
    1.3357E-02    3.2057E-01    1.0000E+00    3.2057E-01    1.3357E-02    8.8068E-05    0.0000E+00
    8.8068E-05    1.3357E-02    3.2057E-01    1.0000E+00    3.2057E-01    1.3357E-02    8.8068E-05
    0.0000E+00    8.8068E-05    1.3357E-02    3.2057E-01    1.0000E+00    3.2057E-01    1.3357E-02
    0.0000E+00    0.0000E+00    8.8068E-05    1.3357E-02    3.2057E-01    1.0000E+00    3.2057E-01
    0.0000E+00    0.0000E+00    0.0000E+00    8.8068E-05    1.3357E-02    3.2057E-01    1.0000E+00
 
 *** Supercell on-site and coupling matrices ***
 
 H0 = 
    0.7438E-01   -0.1027E+01    0.3755E-01
   -0.1027E+01    0.7438E-01   -0.1027E+01
    0.3755E-01   -0.1027E+01    0.7438E-01
 V1 = 
   -0.1450E-03    0.3755E-01   -0.1027E+01
    0.0000E+00   -0.1450E-03    0.3755E-01
    0.0000E+00    0.0000E+00   -0.1450E-03
 S0 = 
    0.1000E+01    0.3206E+00    0.1336E-01
    0.3206E+00    0.1000E+01    0.3206E+00
    0.1336E-01    0.3206E+00    0.1000E+01
 S1 = 
    0.8807E-04    0.1336E-01    0.3206E+00
    0.0000E+00    0.8807E-04    0.1336E-01
    0.0000E+00    0.0000E+00    0.8807E-04
Printing DOS of Lead 1to file Lead1DOS.dat
 *******************************
 *    Initializing Lead No.                         2
 *******************************
 
 *** Supercell on-site and coupling matrices ***
 
 H0 = 
   -0.2999E+01   -0.2013E+01   -0.3508E-02
   -0.2013E+01   -0.2999E+01   -0.2013E+01
   -0.3508E-02   -0.2013E+01   -0.2999E+01
 V1 = 
   -0.4157E-03   -0.3508E-02   -0.2013E+01
    0.0000E+00   -0.4157E-03   -0.3508E-02
    0.0000E+00    0.0000E+00   -0.4157E-03
 S0 = 
    0.1000E+01    0.3206E+00    0.1336E-01
    0.3206E+00    0.1000E+01    0.3206E+00
    0.1336E-01    0.3206E+00    0.1000E+01
 S1 = 
    0.8807E-04    0.1336E-01    0.3206E+00
    0.0000E+00    0.8807E-04    0.1336E-01
    0.0000E+00    0.0000E+00    0.8807E-04
 
 *** Extended Supercell Matrices ***
 
 HX = 
   -2.9993E+00   -2.0127E+00   -3.5080E-03   -4.1568E-04    0.0000E+00    0.0000E+00    0.0000E+00
   -2.0127E+00   -2.9993E+00   -2.0127E+00   -3.5080E-03   -4.1568E-04    0.0000E+00    0.0000E+00
   -3.5080E-03   -2.0127E+00   -2.9993E+00   -2.0127E+00   -3.5080E-03   -4.1568E-04    0.0000E+00
   -4.1568E-04   -3.5080E-03   -2.0127E+00   -2.9993E+00   -2.0127E+00   -3.5080E-03   -4.1568E-04
    0.0000E+00   -4.1568E-04   -3.5080E-03   -2.0127E+00   -2.9993E+00   -2.0127E+00   -3.5080E-03
    0.0000E+00    0.0000E+00   -4.1568E-04   -3.5080E-03   -2.0127E+00   -2.9993E+00   -2.0127E+00
    0.0000E+00    0.0000E+00    0.0000E+00   -4.1568E-04   -3.5080E-03   -2.0127E+00   -2.9993E+00
 SX = 
    1.0000E+00    3.2057E-01    1.3357E-02    8.8068E-05    0.0000E+00    0.0000E+00    0.0000E+00
    3.2057E-01    1.0000E+00    3.2057E-01    1.3357E-02    8.8068E-05    0.0000E+00    0.0000E+00
    1.3357E-02    3.2057E-01    1.0000E+00    3.2057E-01    1.3357E-02    8.8068E-05    0.0000E+00
    8.8068E-05    1.3357E-02    3.2057E-01    1.0000E+00    3.2057E-01    1.3357E-02    8.8068E-05
    0.0000E+00    8.8068E-05    1.3357E-02    3.2057E-01    1.0000E+00    3.2057E-01    1.3357E-02
    0.0000E+00    0.0000E+00    8.8068E-05    1.3357E-02    3.2057E-01    1.0000E+00    3.2057E-01
    0.0000E+00    0.0000E+00    0.0000E+00    8.8068E-05    1.3357E-02    3.2057E-01    1.0000E+00
 GauLeg quadrature converged after                      255  steps.
 GauLeg quadrature converged after                      255  steps.
 GauLeg quadrature converged after                      511  steps.
 GauLeg quadrature converged after                      127  steps.
Searching optimum Emin and EMax such that DOS integrates to total number of spin-orbitals in the PC =   2.
 GauLeg quadrature converged after                      255  steps.
 GauLeg quadrature converged after                      127  steps.
 EMin=   -11.00000000000000        EMax=    15.00000000000000     
 Searching Fermi energy...
 GauLeg quadrature converged after                      255  steps.
 GauLeg quadrature converged after                      255  steps.
 GauLeg quadrature converged after                      255  steps.
 GauLeg quadrature converged after                      255  steps.
 GauLeg quadrature converged after                      255  steps.
 EFermi in the bulk electrodes=    -3.073725162885968     
 Lead Hamiltonian shifted by -EFermi =     3.073725162885968     
 OneDLead/Warning: HX, SX, GX, Sigma1, Sigma2 could not be allocated.
 
 *** Extended Supercell Matrices ***
 
 HX = 
    7.4379E-02   -1.0273E+00    3.7548E-02   -1.4499E-04    0.0000E+00    0.0000E+00    0.0000E+00
   -1.0273E+00    7.4379E-02   -1.0273E+00    3.7548E-02   -1.4499E-04    0.0000E+00    0.0000E+00
    3.7548E-02   -1.0273E+00    7.4379E-02   -1.0273E+00    3.7548E-02   -1.4499E-04    0.0000E+00
   -1.4499E-04    3.7548E-02   -1.0273E+00    7.4379E-02   -1.0273E+00    3.7548E-02   -1.4499E-04
    0.0000E+00   -1.4499E-04    3.7548E-02   -1.0273E+00    7.4379E-02   -1.0273E+00    3.7548E-02
    0.0000E+00    0.0000E+00   -1.4499E-04    3.7548E-02   -1.0273E+00    7.4379E-02   -1.0273E+00
    0.0000E+00    0.0000E+00    0.0000E+00   -1.4499E-04    3.7548E-02   -1.0273E+00    7.4379E-02
 SX = 
    1.0000E+00    3.2057E-01    1.3357E-02    8.8068E-05    0.0000E+00    0.0000E+00    0.0000E+00
    3.2057E-01    1.0000E+00    3.2057E-01    1.3357E-02    8.8068E-05    0.0000E+00    0.0000E+00
    1.3357E-02    3.2057E-01    1.0000E+00    3.2057E-01    1.3357E-02    8.8068E-05    0.0000E+00
    8.8068E-05    1.3357E-02    3.2057E-01    1.0000E+00    3.2057E-01    1.3357E-02    8.8068E-05
    0.0000E+00    8.8068E-05    1.3357E-02    3.2057E-01    1.0000E+00    3.2057E-01    1.3357E-02
    0.0000E+00    0.0000E+00    8.8068E-05    1.3357E-02    3.2057E-01    1.0000E+00    3.2057E-01
    0.0000E+00    0.0000E+00    0.0000E+00    8.8068E-05    1.3357E-02    3.2057E-01    1.0000E+00
 
 *** Supercell on-site and coupling matrices ***
 
 H0 = 
    0.7438E-01   -0.1027E+01    0.3755E-01
   -0.1027E+01    0.7438E-01   -0.1027E+01
    0.3755E-01   -0.1027E+01    0.7438E-01
 V1 = 
   -0.1450E-03    0.3755E-01   -0.1027E+01
    0.0000E+00   -0.1450E-03    0.3755E-01
    0.0000E+00    0.0000E+00   -0.1450E-03
 S0 = 
    0.1000E+01    0.3206E+00    0.1336E-01
    0.3206E+00    0.1000E+01    0.3206E+00
    0.1336E-01    0.3206E+00    0.1000E+01
 S1 = 
    0.8807E-04    0.1336E-01    0.3206E+00
    0.0000E+00    0.8807E-04    0.1336E-01
    0.0000E+00    0.0000E+00    0.8807E-04
Printing DOS of Lead 2to file Lead2DOS.dat
 --------------------
 Initial Energy Bounds
 --------------------
 EMin=   -6.870516333499689     
 EMax=    6.870516333499689     
 SECANT method
 Integration of the density matrix on the complex plane has needed   16 points
 Integration of the density matrix on the complex plane has needed   16 points
 Integration of the density matrix on the complex plane has needed   16 points
 Integration of the density matrix on the complex plane has needed   16 points
 Integration of the density matrix on the complex plane has needed   16 points
 -----------------------------------------------
 Fermi energy=  -2.90943  +/-  0.00012
 
 Number of alpha electrons:    2.00000
 Number of beta electrons:     2.00000
 Total number of electrons:     4.00000
 -----------------------------------------------
 RMSDP=2.49D-07 MaxDP=5.72D-07 DE=-1.26D-07 OVMax= 0.00D+00

 Cycle   4  Pass 1  IDiag  1:
 E= -1.33369583431868     Delta-E=       -0.000000117462 Rises=F Damp=F
 -------------------------------------------------------------------------
 Computing the density matrix at cycle:                        4
 -------------------------------------------------------------------------
 *******************************
 *    Initializing Lead No.                         1
 *******************************
 
 *** Supercell on-site and coupling matrices ***
 
 H0 = 
   -0.2999E+01   -0.2013E+01   -0.3508E-02
   -0.2013E+01   -0.2999E+01   -0.2013E+01
   -0.3508E-02   -0.2013E+01   -0.2999E+01
 V1 = 
   -0.4157E-03   -0.3508E-02   -0.2013E+01
    0.0000E+00   -0.4157E-03   -0.3508E-02
    0.0000E+00    0.0000E+00   -0.4157E-03
 S0 = 
    0.1000E+01    0.3206E+00    0.1336E-01
    0.3206E+00    0.1000E+01    0.3206E+00
    0.1336E-01    0.3206E+00    0.1000E+01
 S1 = 
    0.8807E-04    0.1336E-01    0.3206E+00
    0.0000E+00    0.8807E-04    0.1336E-01
    0.0000E+00    0.0000E+00    0.8807E-04
 
 *** Extended Supercell Matrices ***
 
 HX = 
   -2.9993E+00   -2.0127E+00   -3.5080E-03   -4.1568E-04    0.0000E+00    0.0000E+00    0.0000E+00
   -2.0127E+00   -2.9993E+00   -2.0127E+00   -3.5080E-03   -4.1568E-04    0.0000E+00    0.0000E+00
   -3.5080E-03   -2.0127E+00   -2.9993E+00   -2.0127E+00   -3.5080E-03   -4.1568E-04    0.0000E+00
   -4.1568E-04   -3.5080E-03   -2.0127E+00   -2.9993E+00   -2.0127E+00   -3.5080E-03   -4.1568E-04
    0.0000E+00   -4.1568E-04   -3.5080E-03   -2.0127E+00   -2.9993E+00   -2.0127E+00   -3.5080E-03
    0.0000E+00    0.0000E+00   -4.1568E-04   -3.5080E-03   -2.0127E+00   -2.9993E+00   -2.0127E+00
    0.0000E+00    0.0000E+00    0.0000E+00   -4.1568E-04   -3.5080E-03   -2.0127E+00   -2.9993E+00
 SX = 
    1.0000E+00    3.2057E-01    1.3357E-02    8.8068E-05    0.0000E+00    0.0000E+00    0.0000E+00
    3.2057E-01    1.0000E+00    3.2057E-01    1.3357E-02    8.8068E-05    0.0000E+00    0.0000E+00
    1.3357E-02    3.2057E-01    1.0000E+00    3.2057E-01    1.3357E-02    8.8068E-05    0.0000E+00
    8.8068E-05    1.3357E-02    3.2057E-01    1.0000E+00    3.2057E-01    1.3357E-02    8.8068E-05
    0.0000E+00    8.8068E-05    1.3357E-02    3.2057E-01    1.0000E+00    3.2057E-01    1.3357E-02
    0.0000E+00    0.0000E+00    8.8068E-05    1.3357E-02    3.2057E-01    1.0000E+00    3.2057E-01
    0.0000E+00    0.0000E+00    0.0000E+00    8.8068E-05    1.3357E-02    3.2057E-01    1.0000E+00
 GauLeg quadrature converged after                      255  steps.
 GauLeg quadrature converged after                      255  steps.
 GauLeg quadrature converged after                      511  steps.
 GauLeg quadrature converged after                      127  steps.
Searching optimum Emin and EMax such that DOS integrates to total number of spin-orbitals in the PC =   2.
 GauLeg quadrature converged after                      255  steps.
 GauLeg quadrature converged after                      127  steps.
 EMin=   -11.00000000000000        EMax=    15.00000000000000     
 Searching Fermi energy...
 GauLeg quadrature converged after                      255  steps.
 GauLeg quadrature converged after                      255  steps.
 GauLeg quadrature converged after                      255  steps.
 GauLeg quadrature converged after                      255  steps.
 GauLeg quadrature converged after                      255  steps.
 EFermi in the bulk electrodes=    -3.073722967359988     
 Lead Hamiltonian shifted by -EFermi =     3.073722967359988     
 OneDLead/Warning: HX, SX, GX, Sigma1, Sigma2 could not be allocated.
 
 *** Extended Supercell Matrices ***
 
 HX = 
    7.4379E-02   -1.0273E+00    3.7548E-02   -1.4499E-04    0.0000E+00    0.0000E+00    0.0000E+00
   -1.0273E+00    7.4379E-02   -1.0273E+00    3.7548E-02   -1.4499E-04    0.0000E+00    0.0000E+00
    3.7548E-02   -1.0273E+00    7.4379E-02   -1.0273E+00    3.7548E-02   -1.4499E-04    0.0000E+00
   -1.4499E-04    3.7548E-02   -1.0273E+00    7.4379E-02   -1.0273E+00    3.7548E-02   -1.4499E-04
    0.0000E+00   -1.4499E-04    3.7548E-02   -1.0273E+00    7.4379E-02   -1.0273E+00    3.7548E-02
    0.0000E+00    0.0000E+00   -1.4499E-04    3.7548E-02   -1.0273E+00    7.4379E-02   -1.0273E+00
    0.0000E+00    0.0000E+00    0.0000E+00   -1.4499E-04    3.7548E-02   -1.0273E+00    7.4379E-02
 SX = 
    1.0000E+00    3.2057E-01    1.3357E-02    8.8068E-05    0.0000E+00    0.0000E+00    0.0000E+00
    3.2057E-01    1.0000E+00    3.2057E-01    1.3357E-02    8.8068E-05    0.0000E+00    0.0000E+00
    1.3357E-02    3.2057E-01    1.0000E+00    3.2057E-01    1.3357E-02    8.8068E-05    0.0000E+00
    8.8068E-05    1.3357E-02    3.2057E-01    1.0000E+00    3.2057E-01    1.3357E-02    8.8068E-05
    0.0000E+00    8.8068E-05    1.3357E-02    3.2057E-01    1.0000E+00    3.2057E-01    1.3357E-02
    0.0000E+00    0.0000E+00    8.8068E-05    1.3357E-02    3.2057E-01    1.0000E+00    3.2057E-01
    0.0000E+00    0.0000E+00    0.0000E+00    8.8068E-05    1.3357E-02    3.2057E-01    1.0000E+00
 
 *** Supercell on-site and coupling matrices ***
 
 H0 = 
    0.7438E-01   -0.1027E+01    0.3755E-01
   -0.1027E+01    0.7438E-01   -0.1027E+01
    0.3755E-01   -0.1027E+01    0.7438E-01
 V1 = 
   -0.1450E-03    0.3755E-01   -0.1027E+01
    0.0000E+00   -0.1450E-03    0.3755E-01
    0.0000E+00    0.0000E+00   -0.1450E-03
 S0 = 
    0.1000E+01    0.3206E+00    0.1336E-01
    0.3206E+00    0.1000E+01    0.3206E+00
    0.1336E-01    0.3206E+00    0.1000E+01
 S1 = 
    0.8807E-04    0.1336E-01    0.3206E+00
    0.0000E+00    0.8807E-04    0.1336E-01
    0.0000E+00    0.0000E+00    0.8807E-04
Printing DOS of Lead 1to file Lead1DOS.dat
 *******************************
 *    Initializing Lead No.                         2
 *******************************
 
 *** Supercell on-site and coupling matrices ***
 
 H0 = 
   -0.2999E+01   -0.2013E+01   -0.3508E-02
   -0.2013E+01   -0.2999E+01   -0.2013E+01
   -0.3508E-02   -0.2013E+01   -0.2999E+01
 V1 = 
   -0.4157E-03   -0.3508E-02   -0.2013E+01
    0.0000E+00   -0.4157E-03   -0.3508E-02
    0.0000E+00    0.0000E+00   -0.4157E-03
 S0 = 
    0.1000E+01    0.3206E+00    0.1336E-01
    0.3206E+00    0.1000E+01    0.3206E+00
    0.1336E-01    0.3206E+00    0.1000E+01
 S1 = 
    0.8807E-04    0.1336E-01    0.3206E+00
    0.0000E+00    0.8807E-04    0.1336E-01
    0.0000E+00    0.0000E+00    0.8807E-04
 
 *** Extended Supercell Matrices ***
 
 HX = 
   -2.9993E+00   -2.0127E+00   -3.5080E-03   -4.1568E-04    0.0000E+00    0.0000E+00    0.0000E+00
   -2.0127E+00   -2.9993E+00   -2.0127E+00   -3.5080E-03   -4.1568E-04    0.0000E+00    0.0000E+00
   -3.5080E-03   -2.0127E+00   -2.9993E+00   -2.0127E+00   -3.5080E-03   -4.1568E-04    0.0000E+00
   -4.1568E-04   -3.5080E-03   -2.0127E+00   -2.9993E+00   -2.0127E+00   -3.5080E-03   -4.1568E-04
    0.0000E+00   -4.1568E-04   -3.5080E-03   -2.0127E+00   -2.9993E+00   -2.0127E+00   -3.5080E-03
    0.0000E+00    0.0000E+00   -4.1568E-04   -3.5080E-03   -2.0127E+00   -2.9993E+00   -2.0127E+00
    0.0000E+00    0.0000E+00    0.0000E+00   -4.1568E-04   -3.5080E-03   -2.0127E+00   -2.9993E+00
 SX = 
    1.0000E+00    3.2057E-01    1.3357E-02    8.8068E-05    0.0000E+00    0.0000E+00    0.0000E+00
    3.2057E-01    1.0000E+00    3.2057E-01    1.3357E-02    8.8068E-05    0.0000E+00    0.0000E+00
    1.3357E-02    3.2057E-01    1.0000E+00    3.2057E-01    1.3357E-02    8.8068E-05    0.0000E+00
    8.8068E-05    1.3357E-02    3.2057E-01    1.0000E+00    3.2057E-01    1.3357E-02    8.8068E-05
    0.0000E+00    8.8068E-05    1.3357E-02    3.2057E-01    1.0000E+00    3.2057E-01    1.3357E-02
    0.0000E+00    0.0000E+00    8.8068E-05    1.3357E-02    3.2057E-01    1.0000E+00    3.2057E-01
    0.0000E+00    0.0000E+00    0.0000E+00    8.8068E-05    1.3357E-02    3.2057E-01    1.0000E+00
 GauLeg quadrature converged after                      255  steps.
 GauLeg quadrature converged after                      255  steps.
 GauLeg quadrature converged after                      511  steps.
 GauLeg quadrature converged after                      127  steps.
Searching optimum Emin and EMax such that DOS integrates to total number of spin-orbitals in the PC =   2.
 GauLeg quadrature converged after                      255  steps.
 GauLeg quadrature converged after                      127  steps.
 EMin=   -11.00000000000000        EMax=    15.00000000000000     
 Searching Fermi energy...
 GauLeg quadrature converged after                      255  steps.
 GauLeg quadrature converged after                      255  steps.
 GauLeg quadrature converged after                      255  steps.
 GauLeg quadrature converged after                      255  steps.
 GauLeg quadrature converged after                      255  steps.
 EFermi in the bulk electrodes=    -3.073722967359979     
 Lead Hamiltonian shifted by -EFermi =     3.073722967359979     
 OneDLead/Warning: HX, SX, GX, Sigma1, Sigma2 could not be allocated.
 
 *** Extended Supercell Matrices ***
 
 HX = 
    7.4379E-02   -1.0273E+00    3.7548E-02   -1.4499E-04    0.0000E+00    0.0000E+00    0.0000E+00
   -1.0273E+00    7.4379E-02   -1.0273E+00    3.7548E-02   -1.4499E-04    0.0000E+00    0.0000E+00
    3.7548E-02   -1.0273E+00    7.4379E-02   -1.0273E+00    3.7548E-02   -1.4499E-04    0.0000E+00
   -1.4499E-04    3.7548E-02   -1.0273E+00    7.4379E-02   -1.0273E+00    3.7548E-02   -1.4499E-04
    0.0000E+00   -1.4499E-04    3.7548E-02   -1.0273E+00    7.4379E-02   -1.0273E+00    3.7548E-02
    0.0000E+00    0.0000E+00   -1.4499E-04    3.7548E-02   -1.0273E+00    7.4379E-02   -1.0273E+00
    0.0000E+00    0.0000E+00    0.0000E+00   -1.4499E-04    3.7548E-02   -1.0273E+00    7.4379E-02
 SX = 
    1.0000E+00    3.2057E-01    1.3357E-02    8.8068E-05    0.0000E+00    0.0000E+00    0.0000E+00
    3.2057E-01    1.0000E+00    3.2057E-01    1.3357E-02    8.8068E-05    0.0000E+00    0.0000E+00
    1.3357E-02    3.2057E-01    1.0000E+00    3.2057E-01    1.3357E-02    8.8068E-05    0.0000E+00
    8.8068E-05    1.3357E-02    3.2057E-01    1.0000E+00    3.2057E-01    1.3357E-02    8.8068E-05
    0.0000E+00    8.8068E-05    1.3357E-02    3.2057E-01    1.0000E+00    3.2057E-01    1.3357E-02
    0.0000E+00    0.0000E+00    8.8068E-05    1.3357E-02    3.2057E-01    1.0000E+00    3.2057E-01
    0.0000E+00    0.0000E+00    0.0000E+00    8.8068E-05    1.3357E-02    3.2057E-01    1.0000E+00
 
 *** Supercell on-site and coupling matrices ***
 
 H0 = 
    0.7438E-01   -0.1027E+01    0.3755E-01
   -0.1027E+01    0.7438E-01   -0.1027E+01
    0.3755E-01   -0.1027E+01    0.7438E-01
 V1 = 
   -0.1450E-03    0.3755E-01   -0.1027E+01
    0.0000E+00   -0.1450E-03    0.3755E-01
    0.0000E+00    0.0000E+00   -0.1450E-03
 S0 = 
    0.1000E+01    0.3206E+00    0.1336E-01
    0.3206E+00    0.1000E+01    0.3206E+00
    0.1336E-01    0.3206E+00    0.1000E+01
 S1 = 
    0.8807E-04    0.1336E-01    0.3206E+00
    0.0000E+00    0.8807E-04    0.1336E-01
    0.0000E+00    0.0000E+00    0.8807E-04
Printing DOS of Lead 2to file Lead2DOS.dat
 --------------------
 Initial Energy Bounds
 --------------------
 EMin=   -6.870513956314175     
 EMax=    6.870513956314175     
 SECANT method
 Integration of the density matrix on the complex plane has needed   16 points
 Integration of the density matrix on the complex plane has needed   16 points
 Integration of the density matrix on the complex plane has needed   16 points
 Integration of the density matrix on the complex plane has needed   16 points
 Integration of the density matrix on the complex plane has needed   16 points
[...]
 Integration of the density matrix on the complex plane has needed   16 points
 Integration of the density matrix on the complex plane has needed   16 points
 Integration of the density matrix on the complex plane has needed   16 points
 -----------------------------------------------
 Fermi energy=  -2.90944  +/-  0.00012
 
 Number of alpha electrons:    2.00000
 Number of beta electrons:     2.00000
 Total number of electrons:     4.00000
 -----------------------------------------------
 RMSDP=2.04D-08 MaxDP=6.21D-08 DE=-1.75D-06 OVMax= 0.00D+00

 SCF Done:  E(RS-VWN) =  -1.33369758881     A.U. after    5 cycles
            NFock=  5  Conv=0.20D-07     -V/T= 2.8359
 KE= 7.264719267719D-01 PE=-5.005040906052D+00 EE= 1.410257485558D+00
 -------------------------------------------------------------------------
 Computing the density matrix at cycle:                     1000
 -------------------------------------------------------------------------
 *******************************
 *    Initializing Lead No.                         1
 *******************************
 
 *** Supercell on-site and coupling matrices ***
 
 H0 = 
   -0.2999E+01   -0.2013E+01   -0.3508E-02
   -0.2013E+01   -0.2999E+01   -0.2013E+01
   -0.3508E-02   -0.2013E+01   -0.2999E+01
 V1 = 
   -0.4157E-03   -0.3508E-02   -0.2013E+01
    0.0000E+00   -0.4157E-03   -0.3508E-02
    0.0000E+00    0.0000E+00   -0.4157E-03
 S0 = 
    0.1000E+01    0.3206E+00    0.1336E-01
    0.3206E+00    0.1000E+01    0.3206E+00
    0.1336E-01    0.3206E+00    0.1000E+01
 S1 = 
    0.8807E-04    0.1336E-01    0.3206E+00
    0.0000E+00    0.8807E-04    0.1336E-01
    0.0000E+00    0.0000E+00    0.8807E-04
 
 *** Extended Supercell Matrices ***
 
 HX = 
   -2.9993E+00   -2.0127E+00   -3.5080E-03   -4.1569E-04    0.0000E+00    0.0000E+00    0.0000E+00
   -2.0127E+00   -2.9993E+00   -2.0127E+00   -3.5080E-03   -4.1569E-04    0.0000E+00    0.0000E+00
   -3.5080E-03   -2.0127E+00   -2.9993E+00   -2.0127E+00   -3.5080E-03   -4.1569E-04    0.0000E+00
   -4.1569E-04   -3.5080E-03   -2.0127E+00   -2.9993E+00   -2.0127E+00   -3.5080E-03   -4.1569E-04
    0.0000E+00   -4.1569E-04   -3.5080E-03   -2.0127E+00   -2.9993E+00   -2.0127E+00   -3.5080E-03
    0.0000E+00    0.0000E+00   -4.1569E-04   -3.5080E-03   -2.0127E+00   -2.9993E+00   -2.0127E+00
    0.0000E+00    0.0000E+00    0.0000E+00   -4.1569E-04   -3.5080E-03   -2.0127E+00   -2.9993E+00
 SX = 
    1.0000E+00    3.2057E-01    1.3357E-02    8.8068E-05    0.0000E+00    0.0000E+00    0.0000E+00
    3.2057E-01    1.0000E+00    3.2057E-01    1.3357E-02    8.8068E-05    0.0000E+00    0.0000E+00
    1.3357E-02    3.2057E-01    1.0000E+00    3.2057E-01    1.3357E-02    8.8068E-05    0.0000E+00
    8.8068E-05    1.3357E-02    3.2057E-01    1.0000E+00    3.2057E-01    1.3357E-02    8.8068E-05
    0.0000E+00    8.8068E-05    1.3357E-02    3.2057E-01    1.0000E+00    3.2057E-01    1.3357E-02
    0.0000E+00    0.0000E+00    8.8068E-05    1.3357E-02    3.2057E-01    1.0000E+00    3.2057E-01
    0.0000E+00    0.0000E+00    0.0000E+00    8.8068E-05    1.3357E-02    3.2057E-01    1.0000E+00
 GauLeg quadrature converged after                      255  steps.
 GauLeg quadrature converged after                      255  steps.
 GauLeg quadrature converged after                      511  steps.
 GauLeg quadrature converged after                      127  steps.
Searching optimum Emin and EMax such that DOS integrates to total number of spin-orbitals in the PC =   2.
 GauLeg quadrature converged after                      255  steps.
 GauLeg quadrature converged after                      127  steps.
 EMin=   -11.00000000000000        EMax=    15.00000000000000     
 Searching Fermi energy...
 GauLeg quadrature converged after                      255  steps.
 GauLeg quadrature converged after                      255  steps.
 GauLeg quadrature converged after                      255  steps.
 GauLeg quadrature converged after                      255  steps.
 GauLeg quadrature converged after                      255  steps.
 EFermi in the bulk electrodes=    -3.073722965547781     
 Lead Hamiltonian shifted by -EFermi =     3.073722965547781     
 OneDLead/Warning: HX, SX, GX, Sigma1, Sigma2 could not be allocated.
 
 *** Extended Supercell Matrices ***
 
 HX = 
    7.4378E-02   -1.0273E+00    3.7548E-02   -1.4499E-04    0.0000E+00    0.0000E+00    0.0000E+00
   -1.0273E+00    7.4378E-02   -1.0273E+00    3.7548E-02   -1.4499E-04    0.0000E+00    0.0000E+00
    3.7548E-02   -1.0273E+00    7.4378E-02   -1.0273E+00    3.7548E-02   -1.4499E-04    0.0000E+00
   -1.4499E-04    3.7548E-02   -1.0273E+00    7.4378E-02   -1.0273E+00    3.7548E-02   -1.4499E-04
    0.0000E+00   -1.4499E-04    3.7548E-02   -1.0273E+00    7.4378E-02   -1.0273E+00    3.7548E-02
    0.0000E+00    0.0000E+00   -1.4499E-04    3.7548E-02   -1.0273E+00    7.4378E-02   -1.0273E+00
    0.0000E+00    0.0000E+00    0.0000E+00   -1.4499E-04    3.7548E-02   -1.0273E+00    7.4378E-02
 SX = 
    1.0000E+00    3.2057E-01    1.3357E-02    8.8068E-05    0.0000E+00    0.0000E+00    0.0000E+00
    3.2057E-01    1.0000E+00    3.2057E-01    1.3357E-02    8.8068E-05    0.0000E+00    0.0000E+00
    1.3357E-02    3.2057E-01    1.0000E+00    3.2057E-01    1.3357E-02    8.8068E-05    0.0000E+00
    8.8068E-05    1.3357E-02    3.2057E-01    1.0000E+00    3.2057E-01    1.3357E-02    8.8068E-05
    0.0000E+00    8.8068E-05    1.3357E-02    3.2057E-01    1.0000E+00    3.2057E-01    1.3357E-02
    0.0000E+00    0.0000E+00    8.8068E-05    1.3357E-02    3.2057E-01    1.0000E+00    3.2057E-01
    0.0000E+00    0.0000E+00    0.0000E+00    8.8068E-05    1.3357E-02    3.2057E-01    1.0000E+00
 
 *** Supercell on-site and coupling matrices ***
 
 H0 = 
    0.7438E-01   -0.1027E+01    0.3755E-01
   -0.1027E+01    0.7438E-01   -0.1027E+01
    0.3755E-01   -0.1027E+01    0.7438E-01
 V1 = 
   -0.1450E-03    0.3755E-01   -0.1027E+01
    0.0000E+00   -0.1450E-03    0.3755E-01
    0.0000E+00    0.0000E+00   -0.1450E-03
 S0 = 
    0.1000E+01    0.3206E+00    0.1336E-01
    0.3206E+00    0.1000E+01    0.3206E+00
    0.1336E-01    0.3206E+00    0.1000E+01
 S1 = 
    0.8807E-04    0.1336E-01    0.3206E+00
    0.0000E+00    0.8807E-04    0.1336E-01
    0.0000E+00    0.0000E+00    0.8807E-04
Printing DOS of Lead 1to file Lead1DOS.dat
 *******************************
 *    Initializing Lead No.                         2
 *******************************
 
 *** Supercell on-site and coupling matrices ***
 
 H0 = 
   -0.2999E+01   -0.2013E+01   -0.3508E-02
   -0.2013E+01   -0.2999E+01   -0.2013E+01
   -0.3508E-02   -0.2013E+01   -0.2999E+01
 V1 = 
   -0.4157E-03   -0.3508E-02   -0.2013E+01
    0.0000E+00   -0.4157E-03   -0.3508E-02
    0.0000E+00    0.0000E+00   -0.4157E-03
 S0 = 
    0.1000E+01    0.3206E+00    0.1336E-01
    0.3206E+00    0.1000E+01    0.3206E+00
    0.1336E-01    0.3206E+00    0.1000E+01
 S1 = 
    0.8807E-04    0.1336E-01    0.3206E+00
    0.0000E+00    0.8807E-04    0.1336E-01
    0.0000E+00    0.0000E+00    0.8807E-04
 
 *** Extended Supercell Matrices ***
 
 HX = 
   -2.9993E+00   -2.0127E+00   -3.5080E-03   -4.1569E-04    0.0000E+00    0.0000E+00    0.0000E+00
   -2.0127E+00   -2.9993E+00   -2.0127E+00   -3.5080E-03   -4.1569E-04    0.0000E+00    0.0000E+00
   -3.5080E-03   -2.0127E+00   -2.9993E+00   -2.0127E+00   -3.5080E-03   -4.1569E-04    0.0000E+00
   -4.1569E-04   -3.5080E-03   -2.0127E+00   -2.9993E+00   -2.0127E+00   -3.5080E-03   -4.1569E-04
    0.0000E+00   -4.1569E-04   -3.5080E-03   -2.0127E+00   -2.9993E+00   -2.0127E+00   -3.5080E-03
    0.0000E+00    0.0000E+00   -4.1569E-04   -3.5080E-03   -2.0127E+00   -2.9993E+00   -2.0127E+00
    0.0000E+00    0.0000E+00    0.0000E+00   -4.1569E-04   -3.5080E-03   -2.0127E+00   -2.9993E+00
 SX = 
    1.0000E+00    3.2057E-01    1.3357E-02    8.8068E-05    0.0000E+00    0.0000E+00    0.0000E+00
    3.2057E-01    1.0000E+00    3.2057E-01    1.3357E-02    8.8068E-05    0.0000E+00    0.0000E+00
    1.3357E-02    3.2057E-01    1.0000E+00    3.2057E-01    1.3357E-02    8.8068E-05    0.0000E+00
    8.8068E-05    1.3357E-02    3.2057E-01    1.0000E+00    3.2057E-01    1.3357E-02    8.8068E-05
    0.0000E+00    8.8068E-05    1.3357E-02    3.2057E-01    1.0000E+00    3.2057E-01    1.3357E-02
    0.0000E+00    0.0000E+00    8.8068E-05    1.3357E-02    3.2057E-01    1.0000E+00    3.2057E-01
    0.0000E+00    0.0000E+00    0.0000E+00    8.8068E-05    1.3357E-02    3.2057E-01    1.0000E+00
 GauLeg quadrature converged after                      255  steps.
 GauLeg quadrature converged after                      255  steps.
 GauLeg quadrature converged after                      511  steps.
 GauLeg quadrature converged after                      127  steps.
Searching optimum Emin and EMax such that DOS integrates to total number of spin-orbitals in the PC =   2.
 GauLeg quadrature converged after                      255  steps.
 GauLeg quadrature converged after                      127  steps.
 EMin=   -11.00000000000000        EMax=    15.00000000000000     
 Searching Fermi energy...
 GauLeg quadrature converged after                      255  steps.
 GauLeg quadrature converged after                      255  steps.
 GauLeg quadrature converged after                      255  steps.
 GauLeg quadrature converged after                      255  steps.
 GauLeg quadrature converged after                      255  steps.
 EFermi in the bulk electrodes=    -3.073722963455302     
 Lead Hamiltonian shifted by -EFermi =     3.073722963455302     
 OneDLead/Warning: HX, SX, GX, Sigma1, Sigma2 could not be allocated.
 
 *** Extended Supercell Matrices ***
 
 HX = 
    7.4378E-02   -1.0273E+00    3.7548E-02   -1.4499E-04    0.0000E+00    0.0000E+00    0.0000E+00
   -1.0273E+00    7.4378E-02   -1.0273E+00    3.7548E-02   -1.4499E-04    0.0000E+00    0.0000E+00
    3.7548E-02   -1.0273E+00    7.4378E-02   -1.0273E+00    3.7548E-02   -1.4499E-04    0.0000E+00
   -1.4499E-04    3.7548E-02   -1.0273E+00    7.4378E-02   -1.0273E+00    3.7548E-02   -1.4499E-04
    0.0000E+00   -1.4499E-04    3.7548E-02   -1.0273E+00    7.4378E-02   -1.0273E+00    3.7548E-02
    0.0000E+00    0.0000E+00   -1.4499E-04    3.7548E-02   -1.0273E+00    7.4378E-02   -1.0273E+00
    0.0000E+00    0.0000E+00    0.0000E+00   -1.4499E-04    3.7548E-02   -1.0273E+00    7.4378E-02
 SX = 
    1.0000E+00    3.2057E-01    1.3357E-02    8.8068E-05    0.0000E+00    0.0000E+00    0.0000E+00
    3.2057E-01    1.0000E+00    3.2057E-01    1.3357E-02    8.8068E-05    0.0000E+00    0.0000E+00
    1.3357E-02    3.2057E-01    1.0000E+00    3.2057E-01    1.3357E-02    8.8068E-05    0.0000E+00
    8.8068E-05    1.3357E-02    3.2057E-01    1.0000E+00    3.2057E-01    1.3357E-02    8.8068E-05
    0.0000E+00    8.8068E-05    1.3357E-02    3.2057E-01    1.0000E+00    3.2057E-01    1.3357E-02
    0.0000E+00    0.0000E+00    8.8068E-05    1.3357E-02    3.2057E-01    1.0000E+00    3.2057E-01
    0.0000E+00    0.0000E+00    0.0000E+00    8.8068E-05    1.3357E-02    3.2057E-01    1.0000E+00
 
 *** Supercell on-site and coupling matrices ***
 
 H0 = 
    0.7438E-01   -0.1027E+01    0.3755E-01
   -0.1027E+01    0.7438E-01   -0.1027E+01
    0.3755E-01   -0.1027E+01    0.7438E-01
 V1 = 
   -0.1450E-03    0.3755E-01   -0.1027E+01
    0.0000E+00   -0.1450E-03    0.3755E-01
    0.0000E+00    0.0000E+00   -0.1450E-03
 S0 = 
    0.1000E+01    0.3206E+00    0.1336E-01
    0.3206E+00    0.1000E+01    0.3206E+00
    0.1336E-01    0.3206E+00    0.1000E+01
 S1 = 
    0.8807E-04    0.1336E-01    0.3206E+00
    0.0000E+00    0.8807E-04    0.1336E-01
    0.0000E+00    0.0000E+00    0.8807E-04
Printing DOS of Lead 2to file Lead2DOS.dat
 --------------------
 Initial Energy Bounds
 --------------------
 EMin=   -6.870523532474742     
 EMax=    6.870523532474742     
 SECANT method
 Integration of the density matrix on the complex plane has needed   16 points
 Integration of the density matrix on the complex plane has needed   16 points
 Integration of the density matrix on the complex plane has needed   16 points
 Integration of the density matrix on the complex plane has needed   16 points
 Integration of the density matrix on the complex plane has needed   16 points
 -----------------------------------------------
 Fermi energy=  -2.90944  +/-  0.00012
 
 Number of alpha electrons:    2.00000
 Number of beta electrons:     2.00000
 Total number of electrons:     4.00000
 -----------------------------------------------
 
 ****************************************** 
 *                                        * 
 *        ANT.G09 final analysis          * 
 *                                        * 
 ****************************************** 
 
 -------------------------------------
 ---  Self-consistent Hamiltonian  ---
 -------------------------------------
 ---------
 Left lead
 ---------
 Atom:   1   -2.999344
 Atom:   2   -2.870017
 Atom:   3   -2.835528
 ----------
 Right lead
 ----------
 Atom:   4   -2.835528
 Atom:   5   -2.870017
 Atom:   6   -2.999344
 
 --------------------------------
 --- Calculating Transmission ---
 ---  (and DOS if required)   ---
 --------------------------------
 
 SECANT method
 Integration of the density matrix on the complex plane has needed   16 points
 Integration of the density matrix on the complex plane has needed   16 points
 Integration of the density matrix on the complex plane has needed   16 points
 Integration of the density matrix on the complex plane has needed   16 points
 Integration of the density matrix on the complex plane has needed   16 points
 -----------------------------------------------
 Fermi energy=  -2.90944  +/-  0.00012
 
 Number of alpha electrons:    2.00000
 Number of beta electrons:     2.00000
 Total number of electrons:     4.00000
 -----------------------------------------------
 -------------------------------------
 ---  Mulliken population analysis ---
 -------------------------------------
 ----------------------
 Charges in electrode 1
 ----------------------
 Atom:   1  El.dens:  0.9394
 Atom:   2  El.dens:  1.0006
 Atom:   3  El.dens:  0.9994
 ---------------------------------------------------------
 Total num. of electrons in electrode 1:    2.939388103622209     
 ---------------------------------------------------------
 ----------------------------------------------------
 Total num. of electrons in molecule:    0.000000000000000     
 ----------------------------------------------------
 ----------------------
 Charges in electrode 2
 ----------------------
 Atom:   4  El.dens:  0.9994
 Atom:   5  El.dens:  1.0006
 Atom:   6  El.dens:  0.9394
 ---------------------------------------------------------
 Total num. of electrons in electrode 2:    2.939388103364784     
 ---------------------------------------------------------
  ----------------- End of ANT.G09 ------------------- 
 Leave Link  502 at Mon Apr 19 14:08:49 2021, MaxMem=    32768000 cpu:        16.2
 (Enter /home/palacios/gaussian/g09/l601.exe)
 Copying SCF densities to generalized density rwf, IOpCl= 0 IROHF=0.

 **********************************************************************

            Population analysis using the SCF density.

 **********************************************************************

 Orbital symmetries:
       Occupied  (SGG) (SGU) (SGG)
       Virtual   (SGU) (SGG) (SGU)
 The electronic state is 1-SGG.
 Alpha  occ. eigenvalues --   -0.13473  -0.12562  -0.10620
 Alpha virt. eigenvalues --   -0.06935  -0.00638   0.07632
          Condensed to atoms (all electrons):
               1          2          3          4          5          6
     1  Au   0.799739   0.141046  -0.001384  -0.000018   0.000000   0.000000
     2  Au   0.141046   0.727191   0.133389  -0.001059  -0.000017   0.000000
     3  Au  -0.001384   0.133389   0.729632   0.138888  -0.001059  -0.000018
     4  Au  -0.000018  -0.001059   0.138888   0.729632   0.133389  -0.001384
     5  Au   0.000000  -0.000017  -0.001059   0.133389   0.727191   0.141046
     6  Au   0.000000   0.000000  -0.000018  -0.001384   0.141046   0.799739
 Mulliken charges:
               1
     1  Au   0.060616
     2  Au  -0.000551
     3  Au   0.000551
     4  Au   0.000551
     5  Au  -0.000551
     6  Au   0.060616
 Sum of Mulliken charges =   0.12123
 Mulliken charges with hydrogens summed into heavy atoms:
               1
     1  Au   0.060616
     2  Au  -0.000551
     3  Au   0.000551
     4  Au   0.000551
     5  Au  -0.000551
     6  Au   0.060616
 Electronic spatial extent (au):  <R**2>=            590.9511
 Charge=              0.1212 electrons
 Dipole moment (field-independent basis, Debye):
    X=              0.0000    Y=              0.0000    Z=              0.0000  Tot=              0.0000
 Quadrupole moment (field-independent basis, Debye-Ang):
   XX=            -28.3852   YY=            -28.3852   ZZ=             18.4257
   XY=              0.0000   XZ=             -0.0000   YZ=              0.0000
 Traceless Quadrupole moment (field-independent basis, Debye-Ang):
   XX=            -15.6036   YY=            -15.6036   ZZ=             31.2073
   XY=              0.0000   XZ=             -0.0000   YZ=              0.0000
 Octapole moment (field-independent basis, Debye-Ang**2):
  XXX=             -0.0000  YYY=              0.0000  ZZZ=              0.0000  XYY=             -0.0000
  XXY=              0.0000  XXZ=              0.0000  XZZ=              0.0000  YZZ=              0.0000
  YYZ=              0.0000  XYZ=              0.0000
 Hexadecapole moment (field-independent basis, Debye-Ang**3):
 XXXX=            -84.9311 YYYY=            -84.9311 ZZZZ=           -926.2183 XXXY=              0.0000
 XXXZ=              0.0000 YYYX=              0.0000 YYYZ=              0.0000 ZZZX=             -0.0000
 ZZZY=              0.0000 XXYY=            -28.3104 XXZZ=           -741.2155 YYZZ=           -741.2155
 XXYZ=              0.0000 YYXZ=              0.0000 ZZXY=              0.0000
 N-N= 1.534613904911D+00 E-N=-5.005041055806D+00  KE= 7.264719267719D-01
 Symmetry AG   KE= 4.239180546575D-01
 Symmetry B1G  KE= 0.000000000000D+00
 Symmetry B2G  KE= 0.000000000000D+00
 Symmetry B3G  KE= 0.000000000000D+00
 Symmetry AU   KE= 0.000000000000D+00
 Symmetry B1U  KE= 3.025538721145D-01
 Symmetry B2U  KE= 0.000000000000D+00
 Symmetry B3U  KE= 0.000000000000D+00
 No NMR shielding tensors so no spin-rotation constants.
 Leave Link  601 at Mon Apr 19 14:08:49 2021, MaxMem=    32768000 cpu:         0.1
 (Enter /home/palacios/gaussian/g09/l9999.exe)
 1\1\GINC-ASUS\SP\RSVWN\Gen\Au6\PALACIOS\19-Apr-2021\0\\#p lsda/gen pse
 udo=read gfinput Scf=(dsymm,conver=6,nodamp,maxcycle=100)\\Au-Au-Au-Au
 -Au-Au\\0,1\Au,0,0.,0.,0.\Au,0,0.,0.,3.\Au,0,0.,0.,6.\Au,0,0.,0.,9.\Au
 ,0,0.,0.,12.\Au,0,0.,0.,15.\\Version=ES64L-G09RevD.01\State=1-SGG\HF=-
 1.3336976\RMSD=2.043e-08\Dipole=0.,0.,0.\Quadrupole=-11.6009218,-11.60
 09218,23.2018436,0.,0.,0.\PG=D*H [C*(Au1Au1Au1.Au1Au1Au1)]\\@


 10 WHATSOEVER THY HAND FINDETH TO DO, DO IT WITH THY  
 MIGHT. FOR THERE IS NO WORK, NOR DEVICE, NOR KNOWLEDGE, NOR  
 WISDOM, IN THE GRAVE, WHITHER THOU GOEST.                    
 11 I RETURNED AND SAW UNDER THE SUN, THAT THE RACE IS NOT TO 
 THE SWIFT, NOR THE BATTLE TO THE STRONG, NEITHER YET BREAD TO
 THE WISE, NOR YET RICHES TO MEN OF UNDERSTANDING, NOR YET    
 FAVOR TO MEN OF SKILL. BUT TIME AND CHANCE HAPPEN TO THEM ALL.
 12 FOR MAN ALSO KNOWETH NOT HIS TIME. AS THE FISHES   
 THAT ARE TAKEN IN AN EVIL NET, AND AS THE BIRDS THAT ARE     
 CAUGHT IN THE SNARE. SO ARE THE SONS OF MEN SNARED IN AN EVIL
 TIME, WHEN IT FALLETH SUDDENLY UPON THEM.
                                         ECCLESIASTES 9
 Job cpu time:       0 days  0 hours  0 minutes 16.7 seconds.
 File lengths (MBytes):  RWF=      5 Int=      0 D2E=      0 Chk=      1 Scr=      1
 Normal termination of Gaussian 09 at Mon Apr 19 14:08:49 2021.
