 Entering Gaussian System, Link 0=g09
 Input=Au8-chain.gjf
 Output=Au8-chain.log
 Initial command:
 /home/palacios/Gaussian09/intel/v.D01/g09/l1.exe "/scratch/palacios/Gau-23943.inp" -scrdir="/scratch/palacios/"
 Entering Link 1 = /home/palacios/Gaussian09/intel/v.D01/g09/l1.exe PID=     23944.
  
 Copyright (c) 1988,1990,1992,1993,1995,1998,2003,2009,2013,
            Gaussian, Inc.  All Rights Reserved.
  
 This is part of the Gaussian(R) 09 program.  It is based on
 the Gaussian(R) 03 system (copyright 2003, Gaussian, Inc.),
 the Gaussian(R) 98 system (copyright 1998, Gaussian, Inc.),
 the Gaussian(R) 94 system (copyright 1995, Gaussian, Inc.),
 the Gaussian 92(TM) system (copyright 1992, Gaussian, Inc.),
 the Gaussian 90(TM) system (copyright 1990, Gaussian, Inc.),
 the Gaussian 88(TM) system (copyright 1988, Gaussian, Inc.),
 the Gaussian 86(TM) system (copyright 1986, Carnegie Mellon
 University), and the Gaussian 82(TM) system (copyright 1983,
 Carnegie Mellon University). Gaussian is a federally registered
 trademark of Gaussian, Inc.
  
 This software contains proprietary and confidential information,
 including trade secrets, belonging to Gaussian, Inc.
  
 This software is provided under written license and may be
 used, copied, transmitted, or stored only in accord with that
 written license.
  
 The following legend is applicable only to US Government
 contracts under FAR:
  
                    RESTRICTED RIGHTS LEGEND
  
 Use, reproduction and disclosure by the US Government is
 subject to restrictions as set forth in subparagraphs (a)
 and (c) of the Commercial Computer Software - Restricted
 Rights clause in FAR 52.227-19.
  
 Gaussian, Inc.
 340 Quinnipiac St., Bldg. 40, Wallingford CT 06492
  
  
 ---------------------------------------------------------------
 Warning -- This program may not be used in any manner that
 competes with the business of Gaussian, Inc. or will provide
 assistance to any competitor of Gaussian, Inc.  The licensee
 of this program is prohibited from giving any competitor of
 Gaussian, Inc. access to this program.  By using this program,
 the user acknowledges that Gaussian, Inc. is engaged in the
 business of creating and licensing software in the field of
 computational chemistry and represents and warrants to the
 licensee that it is not a competitor of Gaussian, Inc. and that
 it will not use this program in any manner prohibited above.
 ---------------------------------------------------------------
  

 Cite this work as:
 Gaussian 09, Revision D.01,
 M. J. Frisch, G. W. Trucks, H. B. Schlegel, G. E. Scuseria, 
 M. A. Robb, J. R. Cheeseman, G. Scalmani, V. Barone, B. Mennucci, 
 G. A. Petersson, H. Nakatsuji, M. Caricato, X. Li, H. P. Hratchian, 
 A. F. Izmaylov, J. Bloino, G. Zheng, J. L. Sonnenberg, M. Hada, 
 M. Ehara, K. Toyota, R. Fukuda, J. Hasegawa, M. Ishida, T. Nakajima, 
 Y. Honda, O. Kitao, H. Nakai, T. Vreven, J. A. Montgomery, Jr., 
 J. E. Peralta, F. Ogliaro, M. Bearpark, J. J. Heyd, E. Brothers, 
 K. N. Kudin, V. N. Staroverov, T. Keith, R. Kobayashi, J. Normand, 
 K. Raghavachari, A. Rendell, J. C. Burant, S. S. Iyengar, J. Tomasi, 
 M. Cossi, N. Rega, J. M. Millam, M. Klene, J. E. Knox, J. B. Cross, 
 V. Bakken, C. Adamo, J. Jaramillo, R. Gomperts, R. E. Stratmann, 
 O. Yazyev, A. J. Austin, R. Cammi, C. Pomelli, J. W. Ochterski, 
 R. L. Martin, K. Morokuma, V. G. Zakrzewski, G. A. Voth, 
 P. Salvador, J. J. Dannenberg, S. Dapprich, A. D. Daniels, 
 O. Farkas, J. B. Foresman, J. V. Ortiz, J. Cioslowski, 
 and D. J. Fox, Gaussian, Inc., Wallingford CT, 2013.
 
 ******************************************
 Gaussian 09:  ES64L-G09RevD.01 24-Apr-2013
                 8-Jul-2022 
 ******************************************
 %mem=2gb
 %NProcShared=8
 Will use up to    8 processors via shared memory.
 %Subst L101 ../../bin
 %Subst L502 ../../bin
 ----------------------------------------------------------------------
 #p lsda/gen pseudo=read pop=reg Scf=(conver=5,maxcycle=100,dsymm,nodam
 p)
 ----------------------------------------------------------------------
 1/38=1/1;
 2/12=2,17=6,18=5,40=1/2;
 3/5=7,11=2,16=1,17=8,25=1,30=1,74=205/1,2,3;
 4//1;
 5/5=2,6=5,7=100,17=200,18=-2,38=5/2;
 6/28=1/1;
 99/5=1,9=1/99;
 Leave Link    1 at Fri Jul  8 23:17:00 2022, MaxMem=   268435456 cpu:         0.3
 (Enter ../../bin/l101.exe)
 ---------
 Au8-chain
 ---------
 Symbolic Z-matrix:
 Charge =  0 Multiplicity = 1
 Au                    0.        0.        0. 
 Au                    0.        0.        3. 
 Au                    0.        0.        6. 
 Au                    0.        0.        9. 
 Au                    0.        0.        12. 
 Au                    0.        0.        15. 
 Au                    0.        0.        18. 
 Au                    0.        0.        21. 
 
 NAtoms=      8 NQM=        8 NQMF=       0 NMMI=      0 NMMIF=      0
                NMic=       0 NMicF=      0.
                    Isotopes and Nuclear Properties:
 (Nuclear quadrupole moments (NQMom) in fm**2, nuclear magnetic moments (NMagM)
  in nuclear magnetons)

  Atom         1           2           3           4           5           6           7           8
 IAtWgt=         197         197         197         197         197         197         197         197
 AtmWgt= 196.9666000 196.9666000 196.9666000 196.9666000 196.9666000 196.9666000 196.9666000 196.9666000
 NucSpn=           3           3           3           3           3           3           3           3
 AtZEff=   0.0000000   0.0000000   0.0000000   0.0000000   0.0000000   0.0000000   0.0000000   0.0000000
 NQMom=   54.7000000  54.7000000  54.7000000  54.7000000  54.7000000  54.7000000  54.7000000  54.7000000
 NMagM=    0.1481590   0.1481590   0.1481590   0.1481590   0.1481590   0.1481590   0.1481590   0.1481590
 AtZNuc=  79.0000000  79.0000000  79.0000000  79.0000000  79.0000000  79.0000000  79.0000000  79.0000000
 Leave Link  101 at Fri Jul  8 23:17:00 2022, MaxMem=   268435456 cpu:         0.5
 (Enter /home/palacios/Gaussian09/intel/v.D01/g09/l202.exe)
                          Input orientation:                          
 ---------------------------------------------------------------------
 Center     Atomic      Atomic             Coordinates (Angstroms)
 Number     Number       Type             X           Y           Z
 ---------------------------------------------------------------------
      1         79           0        0.000000    0.000000    0.000000
      2         79           0        0.000000    0.000000    3.000000
      3         79           0        0.000000    0.000000    6.000000
      4         79           0        0.000000    0.000000    9.000000
      5         79           0        0.000000    0.000000   12.000000
      6         79           0        0.000000    0.000000   15.000000
      7         79           0        0.000000    0.000000   18.000000
      8         79           0        0.000000    0.000000   21.000000
 ---------------------------------------------------------------------
                    Distance matrix (angstroms):
                    1          2          3          4          5
     1  Au   0.000000
     2  Au   3.000000   0.000000
     3  Au   6.000000   3.000000   0.000000
     4  Au   9.000000   6.000000   3.000000   0.000000
     5  Au  12.000000   9.000000   6.000000   3.000000   0.000000
     6  Au  15.000000  12.000000   9.000000   6.000000   3.000000
     7  Au  18.000000  15.000000  12.000000   9.000000   6.000000
     8  Au  21.000000  18.000000  15.000000  12.000000   9.000000
                    6          7          8
     6  Au   0.000000
     7  Au   3.000000   0.000000
     8  Au   6.000000   3.000000   0.000000
 Stoichiometry    Au8
 Framework group  D*H[C*(AuAuAuAu.AuAuAuAu)]
 Deg. of freedom     4
 Full point group                 D*H     NOp   8
 Largest Abelian subgroup         D2H     NOp   8
 Largest concise Abelian subgroup C2      NOp   2
                         Standard orientation:                         
 ---------------------------------------------------------------------
 Center     Atomic      Atomic             Coordinates (Angstroms)
 Number     Number       Type             X           Y           Z
 ---------------------------------------------------------------------
      1         79           0        0.000000    0.000000   10.500000
      2         79           0        0.000000    0.000000    7.500000
      3         79           0        0.000000    0.000000    4.500000
      4         79           0        0.000000    0.000000    1.500000
      5         79           0        0.000000    0.000000   -1.500000
      6         79           0        0.000000    0.000000   -4.500000
      7         79           0        0.000000    0.000000   -7.500000
      8         79           0        0.000000    0.000000  -10.500000
 ---------------------------------------------------------------------
 Rotational constants (GHZ):      0.0000000      0.0067879      0.0067879
 Leave Link  202 at Fri Jul  8 23:17:00 2022, MaxMem=   268435456 cpu:         0.2
 (Enter /home/palacios/Gaussian09/intel/v.D01/g09/l301.exe)
 General basis read from cards:  (5D, 7F)
 Centers:       1      2      3      4      5      6      7      8
 S 3 1.00
     Exponent=  4.4090000000D-01 Coefficients= -7.4780000000D-01
     Exponent=  2.6260000000D-01 Coefficients=  8.1760000000D-01
     Exponent=  6.1700000000D-02 Coefficients=  8.1130000000D-01
 P 3 1.00
     Exponent=  6.6420000000D-01 Coefficients= -4.5900000000D-02
     Exponent=  1.0730000000D-01 Coefficients=  3.7780000000D-01
     Exponent=  3.1900000000D-02 Coefficients=  7.2330000000D-01
 D 4 1.00
     Exponent=  1.3517000000D+00 Coefficients=  4.7870000000D-01
     Exponent=  5.1490000000D-01 Coefficients=  4.5820000000D-01
     Exponent=  1.9940000000D-01 Coefficients=  2.2030000000D-01
     Exponent=  7.7600000000D-02 Coefficients=  4.1200000000D-02
 ****
 ======================================================================================================
                                       Pseudopotential Parameters
 ======================================================================================================
  Center     Atomic      Valence      Angular      Power
  Number     Number     Electrons     Momentum     of R      Exponent        Coefficient   SO-Coeffient
 ======================================================================================================
    1         79           11
                                      G and up 
                                                     2        0.9657000       -0.98690200    0.00000000
                                                     2        2.2904000       -9.68630600    0.00000000
                                                     2        6.4383998      -32.57246399    0.00000000
                                                     2       16.3645992     -118.53087616    0.00000000
                                                     2       55.9892998     -286.25463867    0.00000000
                                                     1      171.1013947      -51.27423096    0.00000000
                                      S - G
                                                     2        1.2248000      -84.96929932    0.00000000
                                                     2        1.4336000      280.17764282    0.00000000
                                                     2        1.8929000     -354.64355469    0.00000000
                                                     2        2.6963000      334.33190918    0.00000000
                                                     2        3.9899001     -219.39260864    0.00000000
                                                     2        6.0054998      170.85874939    0.00000000
                                                     1       14.5825996       56.33872986    0.00000000
                                                     0       39.3106995        6.40929985    0.00000000
                                      P - G
                                                     2        0.9064000       -6.91190100    0.00000000
                                                     2        1.0311000       72.12546539    0.00000000
                                                     2        1.3287000     -114.97533417    0.00000000
                                                     2        1.9037000      123.61668396    0.00000000
                                                     2        2.8364000      -71.13571167    0.00000000
                                                     2        4.5883999       79.01660156    0.00000000
                                                     1       11.1981001       51.28700638    0.00000000
                                                     0       32.2957001        5.65198278    0.00000000
                                      D - G
                                                     2        0.2931000       -0.11365700    0.00000000
                                                     2        1.0301000       -2.40402508    0.00000000
                                                     2        2.0186000       62.58111572    0.00000000
                                                     2        3.4391999      255.44717407    0.00000000
                                                     2        5.1578999     -161.80647278    0.00000000
                                                     2        2.5149000     -175.77076721    0.00000000
                                                     1        8.0623999       63.62079239    0.00000000
                                                     0       41.0284996        6.75031996    0.00000000
                                      F - G
                                                     2        0.4335000      -47.60779953    0.00000000
                                                     2        0.5097000      176.31802368    0.00000000
                                                     2        0.5796000     -168.67689514    0.00000000
                                                     2        0.7711000       54.49244690    0.00000000
                                                     2        2.5934999       37.71539307    0.00000000
                                                     2        8.3907003      -24.13967514    0.00000000
                                                     1        6.9294000       49.16802216    0.00000000
                                                     0       22.2588997        4.75958586    0.00000000
    2         79           11
                                      G and up 
                                                     2        0.9657000       -0.98690200    0.00000000
                                                     2        2.2904000       -9.68630600    0.00000000
                                                     2        6.4383998      -32.57246399    0.00000000
                                                     2       16.3645992     -118.53087616    0.00000000
                                                     2       55.9892998     -286.25463867    0.00000000
                                                     1      171.1013947      -51.27423096    0.00000000
                                      S - G
                                                     2        1.2248000      -84.96929932    0.00000000
                                                     2        1.4336000      280.17764282    0.00000000
                                                     2        1.8929000     -354.64355469    0.00000000
                                                     2        2.6963000      334.33190918    0.00000000
                                                     2        3.9899001     -219.39260864    0.00000000
                                                     2        6.0054998      170.85874939    0.00000000
                                                     1       14.5825996       56.33872986    0.00000000
                                                     0       39.3106995        6.40929985    0.00000000
                                      P - G
                                                     2        0.9064000       -6.91190100    0.00000000
                                                     2        1.0311000       72.12546539    0.00000000
                                                     2        1.3287000     -114.97533417    0.00000000
                                                     2        1.9037000      123.61668396    0.00000000
                                                     2        2.8364000      -71.13571167    0.00000000
                                                     2        4.5883999       79.01660156    0.00000000
                                                     1       11.1981001       51.28700638    0.00000000
                                                     0       32.2957001        5.65198278    0.00000000
                                      D - G
                                                     2        0.2931000       -0.11365700    0.00000000
                                                     2        1.0301000       -2.40402508    0.00000000
                                                     2        2.0186000       62.58111572    0.00000000
                                                     2        3.4391999      255.44717407    0.00000000
                                                     2        5.1578999     -161.80647278    0.00000000
                                                     2        2.5149000     -175.77076721    0.00000000
                                                     1        8.0623999       63.62079239    0.00000000
                                                     0       41.0284996        6.75031996    0.00000000
                                      F - G
                                                     2        0.4335000      -47.60779953    0.00000000
                                                     2        0.5097000      176.31802368    0.00000000
                                                     2        0.5796000     -168.67689514    0.00000000
                                                     2        0.7711000       54.49244690    0.00000000
                                                     2        2.5934999       37.71539307    0.00000000
                                                     2        8.3907003      -24.13967514    0.00000000
                                                     1        6.9294000       49.16802216    0.00000000
                                                     0       22.2588997        4.75958586    0.00000000
    3         79           11
                                      G and up 
                                                     2        0.9657000       -0.98690200    0.00000000
                                                     2        2.2904000       -9.68630600    0.00000000
                                                     2        6.4383998      -32.57246399    0.00000000
                                                     2       16.3645992     -118.53087616    0.00000000
                                                     2       55.9892998     -286.25463867    0.00000000
                                                     1      171.1013947      -51.27423096    0.00000000
                                      S - G
                                                     2        1.2248000      -84.96929932    0.00000000
                                                     2        1.4336000      280.17764282    0.00000000
                                                     2        1.8929000     -354.64355469    0.00000000
                                                     2        2.6963000      334.33190918    0.00000000
                                                     2        3.9899001     -219.39260864    0.00000000
                                                     2        6.0054998      170.85874939    0.00000000
                                                     1       14.5825996       56.33872986    0.00000000
                                                     0       39.3106995        6.40929985    0.00000000
                                      P - G
                                                     2        0.9064000       -6.91190100    0.00000000
                                                     2        1.0311000       72.12546539    0.00000000
                                                     2        1.3287000     -114.97533417    0.00000000
                                                     2        1.9037000      123.61668396    0.00000000
                                                     2        2.8364000      -71.13571167    0.00000000
                                                     2        4.5883999       79.01660156    0.00000000
                                                     1       11.1981001       51.28700638    0.00000000
                                                     0       32.2957001        5.65198278    0.00000000
                                      D - G
                                                     2        0.2931000       -0.11365700    0.00000000
                                                     2        1.0301000       -2.40402508    0.00000000
                                                     2        2.0186000       62.58111572    0.00000000
                                                     2        3.4391999      255.44717407    0.00000000
                                                     2        5.1578999     -161.80647278    0.00000000
                                                     2        2.5149000     -175.77076721    0.00000000
                                                     1        8.0623999       63.62079239    0.00000000
                                                     0       41.0284996        6.75031996    0.00000000
                                      F - G
                                                     2        0.4335000      -47.60779953    0.00000000
                                                     2        0.5097000      176.31802368    0.00000000
                                                     2        0.5796000     -168.67689514    0.00000000
                                                     2        0.7711000       54.49244690    0.00000000
                                                     2        2.5934999       37.71539307    0.00000000
                                                     2        8.3907003      -24.13967514    0.00000000
                                                     1        6.9294000       49.16802216    0.00000000
                                                     0       22.2588997        4.75958586    0.00000000
    4         79           11
                                      G and up 
                                                     2        0.9657000       -0.98690200    0.00000000
                                                     2        2.2904000       -9.68630600    0.00000000
                                                     2        6.4383998      -32.57246399    0.00000000
                                                     2       16.3645992     -118.53087616    0.00000000
                                                     2       55.9892998     -286.25463867    0.00000000
                                                     1      171.1013947      -51.27423096    0.00000000
                                      S - G
                                                     2        1.2248000      -84.96929932    0.00000000
                                                     2        1.4336000      280.17764282    0.00000000
                                                     2        1.8929000     -354.64355469    0.00000000
                                                     2        2.6963000      334.33190918    0.00000000
                                                     2        3.9899001     -219.39260864    0.00000000
                                                     2        6.0054998      170.85874939    0.00000000
                                                     1       14.5825996       56.33872986    0.00000000
                                                     0       39.3106995        6.40929985    0.00000000
                                      P - G
                                                     2        0.9064000       -6.91190100    0.00000000
                                                     2        1.0311000       72.12546539    0.00000000
                                                     2        1.3287000     -114.97533417    0.00000000
                                                     2        1.9037000      123.61668396    0.00000000
                                                     2        2.8364000      -71.13571167    0.00000000
                                                     2        4.5883999       79.01660156    0.00000000
                                                     1       11.1981001       51.28700638    0.00000000
                                                     0       32.2957001        5.65198278    0.00000000
                                      D - G
                                                     2        0.2931000       -0.11365700    0.00000000
                                                     2        1.0301000       -2.40402508    0.00000000
                                                     2        2.0186000       62.58111572    0.00000000
                                                     2        3.4391999      255.44717407    0.00000000
                                                     2        5.1578999     -161.80647278    0.00000000
                                                     2        2.5149000     -175.77076721    0.00000000
                                                     1        8.0623999       63.62079239    0.00000000
                                                     0       41.0284996        6.75031996    0.00000000
                                      F - G
                                                     2        0.4335000      -47.60779953    0.00000000
                                                     2        0.5097000      176.31802368    0.00000000
                                                     2        0.5796000     -168.67689514    0.00000000
                                                     2        0.7711000       54.49244690    0.00000000
                                                     2        2.5934999       37.71539307    0.00000000
                                                     2        8.3907003      -24.13967514    0.00000000
                                                     1        6.9294000       49.16802216    0.00000000
                                                     0       22.2588997        4.75958586    0.00000000
    5         79           11
                                      G and up 
                                                     2        0.9657000       -0.98690200    0.00000000
                                                     2        2.2904000       -9.68630600    0.00000000
                                                     2        6.4383998      -32.57246399    0.00000000
                                                     2       16.3645992     -118.53087616    0.00000000
                                                     2       55.9892998     -286.25463867    0.00000000
                                                     1      171.1013947      -51.27423096    0.00000000
                                      S - G
                                                     2        1.2248000      -84.96929932    0.00000000
                                                     2        1.4336000      280.17764282    0.00000000
                                                     2        1.8929000     -354.64355469    0.00000000
                                                     2        2.6963000      334.33190918    0.00000000
                                                     2        3.9899001     -219.39260864    0.00000000
                                                     2        6.0054998      170.85874939    0.00000000
                                                     1       14.5825996       56.33872986    0.00000000
                                                     0       39.3106995        6.40929985    0.00000000
                                      P - G
                                                     2        0.9064000       -6.91190100    0.00000000
                                                     2        1.0311000       72.12546539    0.00000000
                                                     2        1.3287000     -114.97533417    0.00000000
                                                     2        1.9037000      123.61668396    0.00000000
                                                     2        2.8364000      -71.13571167    0.00000000
                                                     2        4.5883999       79.01660156    0.00000000
                                                     1       11.1981001       51.28700638    0.00000000
                                                     0       32.2957001        5.65198278    0.00000000
                                      D - G
                                                     2        0.2931000       -0.11365700    0.00000000
                                                     2        1.0301000       -2.40402508    0.00000000
                                                     2        2.0186000       62.58111572    0.00000000
                                                     2        3.4391999      255.44717407    0.00000000
                                                     2        5.1578999     -161.80647278    0.00000000
                                                     2        2.5149000     -175.77076721    0.00000000
                                                     1        8.0623999       63.62079239    0.00000000
                                                     0       41.0284996        6.75031996    0.00000000
                                      F - G
                                                     2        0.4335000      -47.60779953    0.00000000
                                                     2        0.5097000      176.31802368    0.00000000
                                                     2        0.5796000     -168.67689514    0.00000000
                                                     2        0.7711000       54.49244690    0.00000000
                                                     2        2.5934999       37.71539307    0.00000000
                                                     2        8.3907003      -24.13967514    0.00000000
                                                     1        6.9294000       49.16802216    0.00000000
                                                     0       22.2588997        4.75958586    0.00000000
    6         79           11
                                      G and up 
                                                     2        0.9657000       -0.98690200    0.00000000
                                                     2        2.2904000       -9.68630600    0.00000000
                                                     2        6.4383998      -32.57246399    0.00000000
                                                     2       16.3645992     -118.53087616    0.00000000
                                                     2       55.9892998     -286.25463867    0.00000000
                                                     1      171.1013947      -51.27423096    0.00000000
                                      S - G
                                                     2        1.2248000      -84.96929932    0.00000000
                                                     2        1.4336000      280.17764282    0.00000000
                                                     2        1.8929000     -354.64355469    0.00000000
                                                     2        2.6963000      334.33190918    0.00000000
                                                     2        3.9899001     -219.39260864    0.00000000
                                                     2        6.0054998      170.85874939    0.00000000
                                                     1       14.5825996       56.33872986    0.00000000
                                                     0       39.3106995        6.40929985    0.00000000
                                      P - G
                                                     2        0.9064000       -6.91190100    0.00000000
                                                     2        1.0311000       72.12546539    0.00000000
                                                     2        1.3287000     -114.97533417    0.00000000
                                                     2        1.9037000      123.61668396    0.00000000
                                                     2        2.8364000      -71.13571167    0.00000000
                                                     2        4.5883999       79.01660156    0.00000000
                                                     1       11.1981001       51.28700638    0.00000000
                                                     0       32.2957001        5.65198278    0.00000000
                                      D - G
                                                     2        0.2931000       -0.11365700    0.00000000
                                                     2        1.0301000       -2.40402508    0.00000000
                                                     2        2.0186000       62.58111572    0.00000000
                                                     2        3.4391999      255.44717407    0.00000000
                                                     2        5.1578999     -161.80647278    0.00000000
                                                     2        2.5149000     -175.77076721    0.00000000
                                                     1        8.0623999       63.62079239    0.00000000
                                                     0       41.0284996        6.75031996    0.00000000
                                      F - G
                                                     2        0.4335000      -47.60779953    0.00000000
                                                     2        0.5097000      176.31802368    0.00000000
                                                     2        0.5796000     -168.67689514    0.00000000
                                                     2        0.7711000       54.49244690    0.00000000
                                                     2        2.5934999       37.71539307    0.00000000
                                                     2        8.3907003      -24.13967514    0.00000000
                                                     1        6.9294000       49.16802216    0.00000000
                                                     0       22.2588997        4.75958586    0.00000000
    7         79           11
                                      G and up 
                                                     2        0.9657000       -0.98690200    0.00000000
                                                     2        2.2904000       -9.68630600    0.00000000
                                                     2        6.4383998      -32.57246399    0.00000000
                                                     2       16.3645992     -118.53087616    0.00000000
                                                     2       55.9892998     -286.25463867    0.00000000
                                                     1      171.1013947      -51.27423096    0.00000000
                                      S - G
                                                     2        1.2248000      -84.96929932    0.00000000
                                                     2        1.4336000      280.17764282    0.00000000
                                                     2        1.8929000     -354.64355469    0.00000000
                                                     2        2.6963000      334.33190918    0.00000000
                                                     2        3.9899001     -219.39260864    0.00000000
                                                     2        6.0054998      170.85874939    0.00000000
                                                     1       14.5825996       56.33872986    0.00000000
                                                     0       39.3106995        6.40929985    0.00000000
                                      P - G
                                                     2        0.9064000       -6.91190100    0.00000000
                                                     2        1.0311000       72.12546539    0.00000000
                                                     2        1.3287000     -114.97533417    0.00000000
                                                     2        1.9037000      123.61668396    0.00000000
                                                     2        2.8364000      -71.13571167    0.00000000
                                                     2        4.5883999       79.01660156    0.00000000
                                                     1       11.1981001       51.28700638    0.00000000
                                                     0       32.2957001        5.65198278    0.00000000
                                      D - G
                                                     2        0.2931000       -0.11365700    0.00000000
                                                     2        1.0301000       -2.40402508    0.00000000
                                                     2        2.0186000       62.58111572    0.00000000
                                                     2        3.4391999      255.44717407    0.00000000
                                                     2        5.1578999     -161.80647278    0.00000000
                                                     2        2.5149000     -175.77076721    0.00000000
                                                     1        8.0623999       63.62079239    0.00000000
                                                     0       41.0284996        6.75031996    0.00000000
                                      F - G
                                                     2        0.4335000      -47.60779953    0.00000000
                                                     2        0.5097000      176.31802368    0.00000000
                                                     2        0.5796000     -168.67689514    0.00000000
                                                     2        0.7711000       54.49244690    0.00000000
                                                     2        2.5934999       37.71539307    0.00000000
                                                     2        8.3907003      -24.13967514    0.00000000
                                                     1        6.9294000       49.16802216    0.00000000
                                                     0       22.2588997        4.75958586    0.00000000
    8         79           11
                                      G and up 
                                                     2        0.9657000       -0.98690200    0.00000000
                                                     2        2.2904000       -9.68630600    0.00000000
                                                     2        6.4383998      -32.57246399    0.00000000
                                                     2       16.3645992     -118.53087616    0.00000000
                                                     2       55.9892998     -286.25463867    0.00000000
                                                     1      171.1013947      -51.27423096    0.00000000
                                      S - G
                                                     2        1.2248000      -84.96929932    0.00000000
                                                     2        1.4336000      280.17764282    0.00000000
                                                     2        1.8929000     -354.64355469    0.00000000
                                                     2        2.6963000      334.33190918    0.00000000
                                                     2        3.9899001     -219.39260864    0.00000000
                                                     2        6.0054998      170.85874939    0.00000000
                                                     1       14.5825996       56.33872986    0.00000000
                                                     0       39.3106995        6.40929985    0.00000000
                                      P - G
                                                     2        0.9064000       -6.91190100    0.00000000
                                                     2        1.0311000       72.12546539    0.00000000
                                                     2        1.3287000     -114.97533417    0.00000000
                                                     2        1.9037000      123.61668396    0.00000000
                                                     2        2.8364000      -71.13571167    0.00000000
                                                     2        4.5883999       79.01660156    0.00000000
                                                     1       11.1981001       51.28700638    0.00000000
                                                     0       32.2957001        5.65198278    0.00000000
                                      D - G
                                                     2        0.2931000       -0.11365700    0.00000000
                                                     2        1.0301000       -2.40402508    0.00000000
                                                     2        2.0186000       62.58111572    0.00000000
                                                     2        3.4391999      255.44717407    0.00000000
                                                     2        5.1578999     -161.80647278    0.00000000
                                                     2        2.5149000     -175.77076721    0.00000000
                                                     1        8.0623999       63.62079239    0.00000000
                                                     0       41.0284996        6.75031996    0.00000000
                                      F - G
                                                     2        0.4335000      -47.60779953    0.00000000
                                                     2        0.5097000      176.31802368    0.00000000
                                                     2        0.5796000     -168.67689514    0.00000000
                                                     2        0.7711000       54.49244690    0.00000000
                                                     2        2.5934999       37.71539307    0.00000000
                                                     2        8.3907003      -24.13967514    0.00000000
                                                     1        6.9294000       49.16802216    0.00000000
                                                     0       22.2588997        4.75958586    0.00000000
 ======================================================================================================
 Ernie: Thresh=  0.10000D-02 Tol=  0.10000D-05 Strict=F.
 There are    20 symmetry adapted cartesian basis functions of AG  symmetry.
 There are     4 symmetry adapted cartesian basis functions of B1G symmetry.
 There are     8 symmetry adapted cartesian basis functions of B2G symmetry.
 There are     8 symmetry adapted cartesian basis functions of B3G symmetry.
 There are     4 symmetry adapted cartesian basis functions of AU  symmetry.
 There are    20 symmetry adapted cartesian basis functions of B1U symmetry.
 There are     8 symmetry adapted cartesian basis functions of B2U symmetry.
 There are     8 symmetry adapted cartesian basis functions of B3U symmetry.
 There are    16 symmetry adapted basis functions of AG  symmetry.
 There are     4 symmetry adapted basis functions of B1G symmetry.
 There are     8 symmetry adapted basis functions of B2G symmetry.
 There are     8 symmetry adapted basis functions of B3G symmetry.
 There are     4 symmetry adapted basis functions of AU  symmetry.
 There are    16 symmetry adapted basis functions of B1U symmetry.
 There are     8 symmetry adapted basis functions of B2U symmetry.
 There are     8 symmetry adapted basis functions of B3U symmetry.
    72 basis functions,   288 primitive gaussians,    80 cartesian basis functions
    44 alpha electrons       44 beta electrons
       nuclear repulsion energy       293.3204068300 Hartrees.
 IExCor=  205 DFT=T Ex=S Corr=VWN ExCW=0 ScaHFX=  0.000000
 ScaDFX=  1.000000  1.000000  1.000000  1.000000 ScalE2=  1.000000  1.000000
 IRadAn=      0 IRanWt=     -1 IRanGd=            0 ICorTp=0 IEmpDi=  4
 NAtoms=    8 NActive=    8 NUniq=    4 SFac= 4.00D+00 NAtFMM=   60 NAOKFM=F Big=F
 Integral buffers will be    131072 words long.
 Raffenetti 2 integral format.
 Two-electron integral symmetry is turned on.
 Leave Link  301 at Fri Jul  8 23:17:00 2022, MaxMem=   268435456 cpu:         0.6
 (Enter /home/palacios/Gaussian09/intel/v.D01/g09/l302.exe)
 NPDir=0 NMtPBC=     1 NCelOv=     1 NCel=       1 NClECP=     1 NCelD=      1
         NCelK=      1 NCelE2=     1 NClLst=     1 CellRange=     0.0.
 One-electron integrals computed using PRISM.
 One-electron integral symmetry used in STVInt
   8 Symmetry operations used in ECPInt.
 ECPInt:  NShTT=     300 NPrTT=    3336 LenC2=     298 LenP2D=    2676.
 LDataN:  DoStor=T MaxTD1= 6 Len=  172
 NBasis=    72 RedAO= T EigKep=  4.38D-02  NBF=    16     4     8     8     4    16     8     8
 NBsUse=    72 1.00D-06 EigRej= -1.00D+00 NBFU=    16     4     8     8     4    16     8     8
 Precomputing XC quadrature grid using
 IXCGrd= 4 IRadAn=           0 IRanWt=          -1 IRanGd=           0 AccXCQ= 0.00D+00.
 Defaulting to unpruned grid for atomic number  79.
 Defaulting to unpruned grid for atomic number  79.
 Defaulting to unpruned grid for atomic number  79.
 Defaulting to unpruned grid for atomic number  79.
 Defaulting to unpruned grid for atomic number  79.
 Defaulting to unpruned grid for atomic number  79.
 Defaulting to unpruned grid for atomic number  79.
 Defaulting to unpruned grid for atomic number  79.
 Generated NRdTot=       0 NPtTot=           0 NUsed=           0 NTot=          32
 NSgBfM=    80    80    80    80    80 MxSgAt=     8 MxSgA2=     8.
 Leave Link  302 at Fri Jul  8 23:17:01 2022, MaxMem=   268435456 cpu:         4.5
 (Enter /home/palacios/Gaussian09/intel/v.D01/g09/l303.exe)
 DipDrv:  MaxL=1.
 Leave Link  303 at Fri Jul  8 23:17:01 2022, MaxMem=   268435456 cpu:         0.1
 (Enter /home/palacios/Gaussian09/intel/v.D01/g09/l401.exe)
 ExpMin= 3.19D-02 ExpMax= 1.35D+00 ExpMxC= 1.35D+00 IAcc=3 IRadAn=         5 AccDes= 0.00D+00
 Harris functional with IExCor=  205 and IRadAn=       5 diagonalized for initial guess.
 HarFok:  IExCor=  205 AccDes= 0.00D+00 IRadAn=         5 IDoV= 1 UseB2=F ITyADJ=14
 ICtDFT=  3500011 ScaDFX=  1.000000  1.000000  1.000000  1.000000
 Defaulting to unpruned grid for atomic number  79.
 Defaulting to unpruned grid for atomic number  79.
 Defaulting to unpruned grid for atomic number  79.
 Defaulting to unpruned grid for atomic number  79.
 Defaulting to unpruned grid for atomic number  79.
 Defaulting to unpruned grid for atomic number  79.
 Defaulting to unpruned grid for atomic number  79.
 Defaulting to unpruned grid for atomic number  79.
 FoFCou: FMM=F IPFlag=           0 FMFlag=      100000 FMFlg1=           0
         NFxFlg=           0 DoJE=T BraDBF=F KetDBF=T FulRan=T
         wScrn=  0.000000 ICntrl=     500 IOpCl=  0 I1Cent=   200000004 NGrid=           0
         NMat0=    1 NMatS0=      1 NMatT0=    0 NMatD0=    1 NMtDS0=    0 NMtDT0=    0
 Petite list used in FoFCou.
 Harris En= -278.578848888420    
 JPrj=0 DoOrth=F DoCkMO=F.
 Initial guess orbital symmetries:
       Occupied  (SGG) (SGU) (SGG) (PIU) (PIU) (PIG) (PIG) (SGU)
                 (PIU) (PIU) (PIG) (PIG) (DLTG) (DLTG) (DLTU) (DLTU)
                 (DLTG) (DLTG) (DLTU) (DLTU) (DLTG) (DLTG) (PIU)
                 (PIU) (SGG) (DLTU) (DLTU) (DLTG) (DLTG) (DLTU)
                 (DLTU) (PIG) (PIG) (SGU) (PIU) (PIU) (PIG) (PIG)
                 (SGG) (SGU) (SGG) (SGU) (SGG) (SGU)
       Virtual   (SGG) (SGU) (SGG) (SGU) (PIU) (PIU) (PIG) (PIG)
                 (PIU) (PIU) (PIG) (PIG) (SGG) (PIU) (PIU) (PIG)
                 (PIG) (PIU) (PIU) (PIG) (PIG) (SGU) (SGG) (SGU)
                 (SGG) (SGU) (SGU) (SGG)
 The electronic state of the initial guess is 1-SGG.
 Leave Link  401 at Fri Jul  8 23:17:01 2022, MaxMem=   268435456 cpu:         0.9
 (Enter ../../bin/l502.exe)
 Closed shell SCF:
 Using DIIS extrapolation, IDIIS=  1040.
 Integral symmetry usage will be decided dynamically.
 Keep J ints in memory in symmetry-blocked form, NReq=4397876.
 IVT=       32726 IEndB=       32726 NGot=   268435456 MDV=   267946817
 LenX=   267946817 LenY=   267939976
 Requested convergence on RMS density matrix=1.00D-05 within 100 cycles.
 Requested convergence on MAX density matrix=1.00D-03.
 Requested convergence on             energy=1.00D-03.
 No special actions if energy rises.
 FoFCou: FMM=F IPFlag=           0 FMFlag=           0 FMFlg1=           0
         NFxFlg=           0 DoJE=F BraDBF=F KetDBF=F FulRan=T
         wScrn=  0.000000 ICntrl=     600 IOpCl=  0 I1Cent=           0 NGrid=           0
         NMat0=    1 NMatS0=   2628 NMatT0=    0 NMatD0=    1 NMtDS0=    0 NMtDT0=    0
 Petite list used in FoFCou.

 Cycle   1  Pass 1  IDiag  1:
 
  ****************************************************************** 
  ***                                                            *** 
  ***                      A l i c a n t e                       *** 
  ***                      N a n o                               *** 
  ***                      T r a n s p o r t                     *** 
  ***                      G 0 9                                 *** 
  ***                                                            *** 
  ****************************************************************** 
  ***                     Version: 2.5.2                         *** 
  ****************************************************************** 
  *  Copyright (c) by                                              * 
  *                                                                * 
  *  Juan Jose Palacios (1)                                        * 
  *  David Jacob (2)                                               * 
  *  Maria Soriano (1,5)                                           * 
  *  Angel J. Perez-Jimenez (3)                                    * 
  *  Emilio SanFabian (3)                                          * 
  *  Jose Antonio Antonio Verges (4)                               * 
  *  Enrique Louis (5)                                             * 
  *  Wynand Dednam (5)                                             * 
  *                                                                * 
  * (1) Departamento de Fisica de la Materia Condensada            * 
  *     Universidad Autonoma de Madrid                             * 
  *     28049 Madrid (SPAIN)                                       * 
  * (2) Theory Department                                          * 
  *     Max-Planck-Institute for Microstructure Physics            * 
  *     Halle, 06120 (GERMANY)                                     * 
  * (3) Departamento de Quimica Fisica                             * 
  *     Universidad de Alicante                                    * 
  *     03690 Alicante (SPAIN)                                     * 
  * (4) Insto. de Ciencias de Materiales de Madrid (ICMM)          * 
  *     Consejo Superior de Investigacion y Ciencia (CSIC)         * 
  *     28049 Madrid (SPAIN)                                       * 
  * (5) Departamento de Fisica Aplicada                            * 
  *     Universidad de Alicante                                    * 
  *     03690 Alicante (SPAIN)                                     * 
  *                                                                * 
  ****************************************************************** 
 
  ****************************************************************** 
  *                                                                * 
  *              Initializing ANT.G09 modules                      * 
  *                                                                * 
  ****************************************************************** 
 
 Scanning Au8-chain.ant file for parameter specifications...
 Done.
 ****************************
 Basic calculation parameters
 ****************************
 ALPHA      =   1.000000000000000E-002
 NPULAY     =                      5
 CHARGEACC  =   1.000000000000000E-005  %
 FERMIACC   =   1.000000000000000E-005  %
 PACC       =   1.000000000000000E-007  %
 FULLACC    =  F
 MAX        =                     15
 SELFACC    =   1.000000000000000E-006
 SMALL      =   0.100000000000000     
 SMALLD     =   0.100000000000000       A
 BIASVOLT   =   0.000000000000000E+000  V
 QEXCESS    =   0.000000000000000E+000 electrons
 ETA        =   1.000000000000000E-003
 GLUE       =    1.00000000000000     
 FERMISTART =   -5.00000000000000       eV
 SOC        =  F
 SOCFAC     =   0.000000000000000E+000
 SOC_CFF_P  =   0.000000000000000E+000  eV
 SOC_CFF_D  =   0.000000000000000E+000  eV
 SOC_CFF_F  =   0.000000000000000E+000  eV
 ROT        =  F
 THETA      =   0.000000000000000E+000  degrees
 PHI        =   0.000000000000000E+000  degrees
 SL         =   1.000000000000000E-002
 DMIMAG     =  F
 FMIXING    =  F
 ************************
 Bethe lattice parameters
 ************************
 TYPE1      = 1DLEAD    
 TYPE2      = 1DLEAD    
 BLPAR1     = Papacon             
 BLPAR2     = Papacon             
 NEMBED1    =                      3
 NEMBED2    =                      3
 NPC        =                      1
 NATOMEL1   = ? 
 NATOMEL2   = ? 
 OVERLAP    = System Overlap
 *************************
 Spin transport parameters
 *************************
 SWOFFSPL   =   1.000000000000000E-003
 NSPINLOCK  =                      0
 NALPHA     =                     -1
 NBETA      =                     -1
 DU         =  F
 UD         =  F
 DD         =  F
 MRSTART    =                      0
 SPINDEL    =  F
 SPINEDIT   =                      0
 SOCFACATOM =                      0
 SPINROTATO =                      0
 SOCEDIT    =                      0
 ***********************
 Correlations parameters
 ***********************
 CORRBLOCKS =                      0
 PORTHO     =  F
 HYBFUNC    =  F
 DFT+U      =  F
 DIAGCORRBL =  F
 *****************
 Output parameters
 *****************
 HAMILTON   =  F
 MULLIKEN   =  F
 HTRANSM    =  F
 ESTEP      =   1.000000000000000E-002
 DOSENERGY  =   0.000000000000000E+000
 EW1        =   -5.00000000000000     
 EW2        =    5.00000000000000     
 LDOS_BEG   =                      1
 LDOS_END   =                      0
 RTM_BEG    =                      1
 RTM_END    =                      0
 NCHANNELS  =                      0
 LEADDOS    =  F
 PRTHATOM   =                      1
 -------------------
 Initializing device
 -------------------
 ----------------------------------------------------------
 Analyzing cluster for the connection of the  Bethe Lattice
 ----------------------------------------------------------
 
 Atom type of lead 1: Au
 Atom type of lead 2: Au
 
    1   79  11.    9    1    9
    2   79  11.    9   10   18
    3   79  11.    9   19   27
    4   79  11.    9   28   36
    5   79  11.    9   37   45
    6   79  11.    9   46   54
    7   79  11.    9   55   63
    8   79  11.    9   64   72
 
  Center of charge:
   0.000000   0.000000   0.000000
 
                     4 nlead1
  Atoms in left electrode:                     4
   1  Au   0.000000   0.000000  19.842124
   2  Au   0.000000   0.000000  14.172946
   3  Au   0.000000   0.000000   8.503768
   4  Au   0.000000   0.000000   2.834589
 
  Atoms in molecule:                     0
 
  Atoms in right electrode:                     4
   5  Au   0.000000   0.000000 -19.842124
   6  Au   0.000000   0.000000 -14.172946
   7  Au   0.000000   0.000000  -8.503768
   8  Au   0.000000   0.000000  -2.834589
 
 ---------------------------------------------------
 ----- Details on device and contacting atoms ------
 ---------------------------------------------------
 NEmbed(1) =                     3
 NEmbed(2) =                     3
 Number of electrons in neutral reduced device (NCDEl) =                     22
 First and last orbital in reduced device
 NCDAO1 =                     28
 NCDAO2 =                     45
 ---------------------------------------------------
 -------------------------------------------------------------------------------
 ------------
 Starting calculation with density matrix from file  
 P.Au8-chain.dat                                   
 -------------------------------------------------------------------------------
 ------------
 Tr[P*S] of initial guess =   87.9221256498009     
 --------------------------------
 Defaulting to unpruned grid for atomic number  79.
 Defaulting to unpruned grid for atomic number  79.
 Defaulting to unpruned grid for atomic number  79.
 Defaulting to unpruned grid for atomic number  79.
 Defaulting to unpruned grid for atomic number  79.
 Defaulting to unpruned grid for atomic number  79.
 Defaulting to unpruned grid for atomic number  79.
 Defaulting to unpruned grid for atomic number  79.
 E= -278.877778820656    
 -------------------------------------------------------------------------
 Computing the density matrix at cycle:                     1
 -------------------------------------------------------------------------
 *******************************
 *    Initializing Lead No.                      1
 *******************************
Searching optimum Emin such that DOS integrates to zero ...
GauLeg quadrature converged after  255 steps.
 EMin =   -10.0000000000000        29.9873873539523     
GauLeg quadrature converged after   63 steps.
 EMin =   -20.0000000000000       1.485122814995243E-003
Searching optimum EMax such that the DOS integrates to the total spectral weight in the unit cell ...
GauLeg quadrature converged after   63 steps.
 EMax =    30.0000000000000        53.9992991581143     
 EMin=  -30.0000000000000        EMax=   30.0000000000000     
 Searching Fermi energy...
 ChargeOffset   33.0000000000000     
 Bisec Method
GauLeg quadrature converged after   15 steps.
GauLeg quadrature converged after    3 steps.
GauLeg quadrature converged after   15 steps.
GauLeg quadrature converged after   15 steps.
GauLeg quadrature converged after   63 steps.
GauLeg quadrature converged after   31 steps.
GauLeg quadrature converged after   15 steps.
GauLeg quadrature converged after    7 steps.
GauLeg quadrature converged after   15 steps.
GauLeg quadrature converged after    7 steps.
GauLeg quadrature converged after    7 steps.
GauLeg quadrature converged after    7 steps.
EFermi in bulk electrode   1 =   -6.50391
 Lead Hamiltonian shifted by -EFermi =    6.50390625000000     
 *******************************
 *    Initializing Lead No.                      2
 *******************************
Searching optimum Emin such that DOS integrates to zero ...
GauLeg quadrature converged after  255 steps.
 EMin =   -10.0000000000000        29.9873873539523     
GauLeg quadrature converged after   63 steps.
 EMin =   -20.0000000000000       1.485122814993911E-003
Searching optimum EMax such that the DOS integrates to the total spectral weight in the unit cell ...
GauLeg quadrature converged after   63 steps.
 EMax =    30.0000000000000        53.9992991581143     
 EMin=  -30.0000000000000        EMax=   30.0000000000000     
 Searching Fermi energy...
 ChargeOffset   33.0000000000000     
 Bisec Method
GauLeg quadrature converged after   15 steps.
GauLeg quadrature converged after    3 steps.
GauLeg quadrature converged after   15 steps.
GauLeg quadrature converged after   15 steps.
GauLeg quadrature converged after   63 steps.
GauLeg quadrature converged after   31 steps.
GauLeg quadrature converged after   15 steps.
GauLeg quadrature converged after    7 steps.
GauLeg quadrature converged after   15 steps.
GauLeg quadrature converged after    7 steps.
GauLeg quadrature converged after    7 steps.
GauLeg quadrature converged after    7 steps.
EFermi in bulk electrode   2 =   -6.50391
 Lead Hamiltonian shifted by -EFermi =    6.50390625000000     
 -----------------------
 Estimated Energy Bounds
 -----------------------
 EMin=  -34.6105811880244     
 EMax=   36.5039062500000     
 -----------------------
  Total DOS Point Check 
 -----------------------
 Checking energy bounds [EMin, EMax] such that ...
 ...Total Integrated Spectral Weight (TISW)=  36
TotCharge/Gaussian quadrature gives     3  34.32583
TotCharge/Gaussian quadrature gives     7  35.87006
TotCharge/Gaussian quadrature gives    15  36.00887
TotCharge/Gaussian quadrature has converged after  15 steps. Error:   0.00960
TotCharge/Gaussian quadrature gives    35.99927
 EMin=        -34.611  EMax=         36.504  TISW=    35.99927 OK
 --------------------------------------------------
 MULLER method
 Integration of the density matrix on the complex plane has needed   16 points
 Integration of the density matrix on the complex plane has needed   16 points
 Integration of the density matrix on the complex plane has needed   16 points
 Integration of the density matrix on the complex plane has needed   16 points
 Integration of the density matrix on the complex plane has needed   16 points
 -----------------------------------------------
 Fermi energy=  -6.51771  +/-  0.00001
 
 Number of alpha electrons:   11.00000
 Number of beta electrons:    11.00000
 Total number of electrons:    22.00000
 -----------------------------------------------
 DIIS: error= 9.87D-03 at cycle   1 NSaved=   1.
 NSaved= 1 IEnMin= 1 EnMin= -278.877778820656     IErMin= 1 ErrMin= 9.87D-03
 ErrMax= 9.87D-03  0.00D+00 EMaxC= 1.00D-01 BMatC= 3.02D-03 BMatP= 3.02D-03
 IDIUse=3 WtCom= 9.01D-01 WtEn= 9.87D-02
 Coeff-Com:  0.100D+01
 Coeff-En:   0.100D+01
 Coeff:      0.100D+01
 RMSDP=7.82D-03 MaxDP=9.78D-02              OVMax= 0.00D+00

 Cycle   2  Pass 1  IDiag  1:
 E= -278.877926857101     Delta-E=       -0.000148036445 Rises=F Damp=F
 -------------------------------------------------------------------------
 Computing the density matrix at cycle:                     2
 -------------------------------------------------------------------------
 MULLER method
 Integration of the density matrix on the complex plane has needed   16 points
 Integration of the density matrix on the complex plane has needed   16 points
 Integration of the density matrix on the complex plane has needed   16 points
 Integration of the density matrix on the complex plane has needed   16 points
 Integration of the density matrix on the complex plane has needed   16 points
 -----------------------------------------------
 Fermi energy=  -6.51556  +/-  0.00000
 
 Number of alpha electrons:   11.00000
 Number of beta electrons:    11.00000
 Total number of electrons:    22.00000
 -----------------------------------------------
 RMSDP=5.65D-06 MaxDP=9.60D-05 DE=-1.48D-04 OVMax= 0.00D+00

 SCF Done:  E(RS-VWN) =  -278.877926857     A.U. after    2 cycles
            NFock=  2  Conv=0.57D-05     -V/T= 2.3957
 KE= 1.998064441089D+02 PE=-1.279958521859D+03 EE= 5.079537440635D+02
 -------------------------------------------------------------------------
 Computing the density matrix at cycle:                  1000
 -------------------------------------------------------------------------
 MULLER method
 Integration of the density matrix on the complex plane has needed   16 points
 Integration of the density matrix on the complex plane has needed   16 points
 Integration of the density matrix on the complex plane has needed   16 points
 Integration of the density matrix on the complex plane has needed   16 points
 Integration of the density matrix on the complex plane has needed   16 points
 -----------------------------------------------
 Fermi energy=  -6.51556  +/-  0.00000
 
 Number of alpha electrons:   11.00000
 Number of beta electrons:    11.00000
 Total number of electrons:    22.00000
 -----------------------------------------------
 
 ****************************************** 
 *                                        * 
 *        ANT.G09 final analysis          * 
 *                                        * 
 ****************************************** 
 
 -------------------------------------
 ---  Self-consistent Hamiltonian  ---
 -------------------------------------
 ---------
 Left lead
 ---------
 Atom:   1   -7.438638
 Atom:   2   -7.318020
 Atom:   3   -7.346699
 Atom:   4   -7.337073
 ----------
 Right lead
 ----------
 Atom:   5   -7.337073
 Atom:   6   -7.346699
 Atom:   7   -7.318020
 Atom:   8   -7.438638
 
 --------------------------------
 --- Calculating Transmission ---
 ---  (and DOS if required)   ---
 --------------------------------
 
 *******************************
 *    Initializing Lead No.                      1
 *******************************
Searching optimum Emin such that DOS integrates to zero ...
GauLeg quadrature converged after   63 steps.
 EMin =   -23.4960937500000       1.071047777636114E-003
Searching optimum EMax such that the DOS integrates to the total spectral weight in the unit cell ...
GauLeg quadrature converged after   31 steps.
 EMax =    33.4960937500000        53.9976574527048     
 EMin=  -33.4960937500000        EMax=   33.4960937500000     
 Searching Fermi energy...
 ChargeOffset   33.0000000000000     
 Bisec Method
GauLeg quadrature converged after    7 steps.
GauLeg quadrature converged after    3 steps.
GauLeg quadrature converged after   15 steps.
GauLeg quadrature converged after   15 steps.
GauLeg quadrature converged after   31 steps.
GauLeg quadrature converged after   31 steps.
GauLeg quadrature converged after    7 steps.
GauLeg quadrature converged after    7 steps.
GauLeg quadrature converged after    7 steps.
GauLeg quadrature converged after    7 steps.
GauLeg quadrature converged after    7 steps.
GauLeg quadrature converged after    7 steps.
EFermi in bulk electrode   1 =   -6.47678
 Lead Hamiltonian shifted by -EFermi =    6.47678375244141     
 *******************************
 *    Initializing Lead No.                      2
 *******************************
Searching optimum Emin such that DOS integrates to zero ...
GauLeg quadrature converged after   63 steps.
 EMin =   -23.4960937500000       1.071047777638112E-003
Searching optimum EMax such that the DOS integrates to the total spectral weight in the unit cell ...
GauLeg quadrature converged after   31 steps.
 EMax =    33.4960937500000        53.9976574527048     
 EMin=  -33.4960937500000        EMax=   33.4960937500000     
 Searching Fermi energy...
 ChargeOffset   33.0000000000000     
 Bisec Method
GauLeg quadrature converged after    7 steps.
GauLeg quadrature converged after    3 steps.
GauLeg quadrature converged after   15 steps.
GauLeg quadrature converged after   15 steps.
GauLeg quadrature converged after   31 steps.
GauLeg quadrature converged after   31 steps.
GauLeg quadrature converged after    7 steps.
GauLeg quadrature converged after    7 steps.
GauLeg quadrature converged after    7 steps.
GauLeg quadrature converged after    7 steps.
GauLeg quadrature converged after    7 steps.
GauLeg quadrature converged after    7 steps.
EFermi in bulk electrode   2 =   -6.47678
 Lead Hamiltonian shifted by -EFermi =    6.47678375244141     
 MULLER method
 Integration of the density matrix on the complex plane has needed   16 points
 Integration of the density matrix on the complex plane has needed   16 points
 Integration of the density matrix on the complex plane has needed   16 points
 Integration of the density matrix on the complex plane has needed   16 points
 Integration of the density matrix on the complex plane has needed   16 points
 -----------------------------------------------
 Fermi energy=  -6.51508  +/-  0.00000
 
 Number of alpha electrons:   11.00000
 Number of beta electrons:    11.00000
 Total number of electrons:    22.00000
 -----------------------------------------------
 -------------------------------------
 ---  Mulliken population analysis ---
 -------------------------------------
 ----------------------
 Charges in electrode 1
 ----------------------
 Atom:   1  El.dens: 10.9713
 Atom:   2  El.dens: 11.0209
 Atom:   3  El.dens: 10.9915
 Atom:   4  El.dens: 11.0000
 ---------------------------------------------------------
 Total num. of electrons in electrode 1:   43.9836955619035     
 ---------------------------------------------------------
 ----------------------------------------------------
 Total num. of electrons in molecule:  0.000000000000000E+000
 ----------------------------------------------------
 ----------------------
 Charges in electrode 2
 ----------------------
 Atom:   5  El.dens: 11.0000
 Atom:   6  El.dens: 10.9915
 Atom:   7  El.dens: 11.0209
 Atom:   8  El.dens: 10.9713
 ---------------------------------------------------------
 Total num. of electrons in electrode 2:   43.9836955619035     
 ---------------------------------------------------------
  ----------------- End of ANT.G09 ------------------- 
 Leave Link  502 at Fri Jul  8 23:17:24 2022, MaxMem=   268435456 cpu:       177.6
 (Enter /home/palacios/Gaussian09/intel/v.D01/g09/l601.exe)
 Copying SCF densities to generalized density rwf, IOpCl= 0 IROHF=0.

 **********************************************************************

            Population analysis using the SCF density.

 **********************************************************************

 Orbital symmetries:
       Occupied  (SGG) (SGU) (SGG) (PIU) (PIU) (PIG) (PIG) (SGU)
                 (PIU) (PIU) (PIG) (PIG) (DLTG) (DLTG) (DLTU) (DLTU)
                 (DLTG) (DLTG) (DLTU) (DLTU) (DLTG) (DLTG) (PIU)
                 (PIU) (SGG) (DLTU) (DLTU) (DLTG) (DLTG) (DLTU)
                 (DLTU) (PIG) (PIG) (SGU) (PIU) (PIU) (PIG) (PIG)
                 (SGG) (SGU) (SGG) (SGU) (SGG) (SGU)
       Virtual   (SGG) (SGU) (SGG) (SGU) (PIU) (PIU) (PIG) (PIG)
                 (PIU) (PIU) (PIG) (PIG) (SGG) (PIU) (PIU) (PIG)
                 (PIG) (PIU) (PIU) (PIG) (PIG) (SGU) (SGG) (SGU)
                 (SGG) (SGU) (SGU) (SGG)
 The electronic state is 1-SGG.
 Alpha  occ. eigenvalues --   -0.40807  -0.40310  -0.39324  -0.38788  -0.38788
 Alpha  occ. eigenvalues --   -0.38506  -0.38506  -0.38119  -0.38061  -0.38061
 Alpha  occ. eigenvalues --   -0.37495  -0.37495  -0.37238  -0.37238  -0.37184
 Alpha  occ. eigenvalues --   -0.37184  -0.37102  -0.37102  -0.37003  -0.37003
 Alpha  occ. eigenvalues --   -0.36900  -0.36900  -0.36866  -0.36866  -0.36866
 Alpha  occ. eigenvalues --   -0.36807  -0.36807  -0.36734  -0.36734  -0.36688
 Alpha  occ. eigenvalues --   -0.36688  -0.36253  -0.36253  -0.35750  -0.35737
 Alpha  occ. eigenvalues --   -0.35737  -0.35393  -0.35393  -0.34891  -0.34354
 Alpha  occ. eigenvalues --   -0.25322  -0.25215  -0.24231  -0.22779
 Alpha virt. eigenvalues --   -0.20684  -0.17965  -0.14506  -0.10010  -0.07165
 Alpha virt. eigenvalues --   -0.07165  -0.06507  -0.06507  -0.05433  -0.05433
 Alpha virt. eigenvalues --   -0.03960  -0.03960  -0.03615  -0.02081  -0.02081
 Alpha virt. eigenvalues --    0.00263   0.00263   0.03122   0.03122   0.06109
 Alpha virt. eigenvalues --    0.06109   0.06133   0.22554   0.42480   0.67082
 Alpha virt. eigenvalues --    0.76797   0.85501   0.86936
     Molecular Orbital Coefficients:
                          40        41        42        43        44
                       (SGU)--O  (SGG)--O  (SGU)--O  (SGG)--O  (SGU)--O
     Eigenvalues --    -0.34354  -0.25322  -0.25215  -0.24231  -0.22779
   1 1   Au 1S          0.02571   0.02785   0.24299   0.35810   0.44242
   2        2PX         0.00000   0.00000   0.00000   0.00000   0.00000
   3        2PY         0.00000   0.00000   0.00000   0.00000   0.00000
   4        2PZ        -0.01305   0.04348  -0.01461  -0.01537  -0.03538
   5        3D 0       -0.19038  -0.02292  -0.05529  -0.06155  -0.03696
   6        3D+1        0.00000   0.00000   0.00000   0.00000   0.00000
   7        3D-1        0.00000   0.00000   0.00000   0.00000   0.00000
   8        3D+2        0.00000   0.00000   0.00000   0.00000   0.00000
   9        3D-2        0.00000   0.00000   0.00000   0.00000   0.00000
  10 2   Au 1S         -0.04653   0.17156   0.43580   0.43723   0.21067
  11        2PX         0.00000   0.00000   0.00000   0.00000   0.00000
  12        2PY         0.00000   0.00000   0.00000   0.00000   0.00000
  13        2PZ         0.00509   0.05717  -0.06309  -0.04769  -0.03459
  14        3D 0        0.31967  -0.05050  -0.09233  -0.07063  -0.01682
  15        3D+1        0.00000   0.00000   0.00000   0.00000   0.00000
  16        3D-1        0.00000   0.00000   0.00000   0.00000   0.00000
  17        3D+2        0.00000   0.00000   0.00000   0.00000   0.00000
  18        3D-2        0.00000   0.00000   0.00000   0.00000   0.00000
  19 3   Au 1S          0.05988   0.33931   0.40694   0.06232  -0.38830
  20        2PX         0.00000   0.00000   0.00000   0.00000   0.00000
  21        2PY         0.00000   0.00000   0.00000   0.00000   0.00000
  22        2PZ        -0.00905   0.05191  -0.12897  -0.06456  -0.03305
  23        3D 0       -0.41279  -0.08696  -0.08559  -0.01422   0.03021
  24        3D+1        0.00000   0.00000   0.00000   0.00000   0.00000
  25        3D-1        0.00000   0.00000   0.00000   0.00000   0.00000
  26        3D+2        0.00000   0.00000   0.00000   0.00000   0.00000
  27        3D-2        0.00000   0.00000   0.00000   0.00000   0.00000
  28 4   Au 1S         -0.06754   0.44947   0.16468  -0.35496  -0.30913
  29        2PX         0.00000   0.00000   0.00000   0.00000   0.00000
  30        2PY         0.00000   0.00000   0.00000   0.00000   0.00000
  31        2PZ        -0.00105   0.01988  -0.17439  -0.03031  -0.02011
  32        3D 0        0.46199  -0.11034  -0.03452   0.04872   0.02417
  33        3D+1        0.00000   0.00000   0.00000   0.00000   0.00000
  34        3D-1        0.00000   0.00000   0.00000   0.00000   0.00000
  35        3D+2        0.00000   0.00000   0.00000   0.00000   0.00000
  36        3D-2        0.00000   0.00000   0.00000   0.00000   0.00000
  37 5   Au 1S          0.06754   0.44947  -0.16468  -0.35496   0.30913
  38        2PX         0.00000   0.00000   0.00000   0.00000   0.00000
  39        2PY         0.00000   0.00000   0.00000   0.00000   0.00000
  40        2PZ        -0.00105  -0.01988  -0.17439   0.03031  -0.02011
  41        3D 0       -0.46199  -0.11034   0.03452   0.04872  -0.02417
  42        3D+1        0.00000   0.00000   0.00000   0.00000   0.00000
  43        3D-1        0.00000   0.00000   0.00000   0.00000   0.00000
  44        3D+2        0.00000   0.00000   0.00000   0.00000   0.00000
  45        3D-2        0.00000   0.00000   0.00000   0.00000   0.00000
  46 6   Au 1S         -0.05988   0.33931  -0.40694   0.06232   0.38830
  47        2PX         0.00000   0.00000   0.00000   0.00000   0.00000
  48        2PY         0.00000   0.00000   0.00000   0.00000   0.00000
  49        2PZ        -0.00905  -0.05191  -0.12897   0.06456  -0.03305
  50        3D 0        0.41279  -0.08696   0.08559  -0.01422  -0.03021
  51        3D+1        0.00000   0.00000   0.00000   0.00000   0.00000
  52        3D-1        0.00000   0.00000   0.00000   0.00000   0.00000
  53        3D+2        0.00000   0.00000   0.00000   0.00000   0.00000
  54        3D-2        0.00000   0.00000   0.00000   0.00000   0.00000
  55 7   Au 1S          0.04653   0.17156  -0.43580   0.43723  -0.21067
  56        2PX         0.00000   0.00000   0.00000   0.00000   0.00000
  57        2PY         0.00000   0.00000   0.00000   0.00000   0.00000
  58        2PZ         0.00509  -0.05717  -0.06309   0.04769  -0.03459
  59        3D 0       -0.31967  -0.05050   0.09233  -0.07063   0.01682
  60        3D+1        0.00000   0.00000   0.00000   0.00000   0.00000
  61        3D-1        0.00000   0.00000   0.00000   0.00000   0.00000
  62        3D+2        0.00000   0.00000   0.00000   0.00000   0.00000
  63        3D-2        0.00000   0.00000   0.00000   0.00000   0.00000
  64 8   Au 1S         -0.02571   0.02785  -0.24299   0.35810  -0.44242
  65        2PX         0.00000   0.00000   0.00000   0.00000   0.00000
  66        2PY         0.00000   0.00000   0.00000   0.00000   0.00000
  67        2PZ        -0.01305  -0.04348  -0.01461   0.01537  -0.03538
  68        3D 0        0.19038  -0.02292   0.05529  -0.06155   0.03696
  69        3D+1        0.00000   0.00000   0.00000   0.00000   0.00000
  70        3D-1        0.00000   0.00000   0.00000   0.00000   0.00000
  71        3D+2        0.00000   0.00000   0.00000   0.00000   0.00000
  72        3D-2        0.00000   0.00000   0.00000   0.00000   0.00000
                          45        46        47        48        49
                       (SGG)--V  (SGU)--V  (SGG)--V  (SGU)--V  (PIU)--V
     Eigenvalues --    -0.20684  -0.17965  -0.14506  -0.10010  -0.07165
   1 1   Au 1S          0.46783   0.43903  -0.37570  -0.24492   0.00000
   2        2PX         0.00000   0.00000   0.00000   0.00000   0.10945
   3        2PY         0.00000   0.00000   0.00000   0.00000   0.00000
   4        2PZ        -0.01559   0.03912  -0.13600  -0.34663   0.00000
   5        3D 0        0.00194   0.03907  -0.05696  -0.04467   0.00000
   6        3D+1        0.00000   0.00000   0.00000   0.00000   0.01884
   7        3D-1        0.00000   0.00000   0.00000   0.00000   0.00000
   8        3D+2        0.00000   0.00000   0.00000   0.00000   0.00000
   9        3D-2        0.00000   0.00000   0.00000   0.00000   0.00000
  10 2   Au 1S         -0.10575  -0.37121   0.46269   0.34640   0.00000
  11        2PX         0.00000   0.00000   0.00000   0.00000   0.21247
  12        2PY         0.00000   0.00000   0.00000   0.00000   0.00000
  13        2PZ         0.03910   0.09228  -0.04683   0.04804   0.00000
  14        3D 0       -0.00064  -0.03445   0.07772   0.07208   0.00000
  15        3D+1        0.00000   0.00000   0.00000   0.00000   0.01622
  16        3D-1        0.00000   0.00000   0.00000   0.00000   0.00000
  17        3D+2        0.00000   0.00000   0.00000   0.00000   0.00000
  18        3D-2        0.00000   0.00000   0.00000   0.00000   0.00000
  19 3   Au 1S         -0.42471  -0.03773  -0.39973  -0.43821   0.00000
[...]
  52        3D-1        0.00000   0.00000   0.00000   0.00000   0.00000
  53        3D+2        0.00000   0.00000   0.00000   0.00000   0.00000
  54        3D-2        0.00000   0.00000   0.00000   0.00000   0.00000
  55 7   Au 1S         -0.00077   0.00000   0.00000   0.00000   0.00000
  56        2PX         0.00000   0.00000   0.00000   0.00000   0.00000
  57        2PY         0.00000   0.00000   0.00000   0.00000   0.00000
  58        2PZ        -0.00231  -0.00002   0.00000   0.00000   0.00000
  59        3D 0       -0.00002   0.00000   0.00000   0.00000   0.00000
  60        3D+1        0.00000   0.00000   0.00000   0.00000   0.00000
  61        3D-1        0.00000   0.00000   0.00000   0.00000   0.00000
  62        3D+2        0.00000   0.00000   0.00000   0.00000   0.00000
  63        3D-2        0.00000   0.00000   0.00000   0.00000   0.00000
  64 8   Au 1S         -0.00001   0.00000   0.00000   0.00000   0.00000
  65        2PX         0.00000   0.00000   0.00000   0.00000   0.00000
  66        2PY         0.00000   0.00000   0.00000   0.00000   0.00000
  67        2PZ        -0.00006   0.00000   0.00000   0.00000   0.00000
  68        3D 0        0.00000   0.00000   0.00000   0.00000   0.00000
  69        3D+1        0.00000   0.00000   0.00000   0.00000   0.00000
  70        3D-1        0.00000   0.00000   0.00000   0.00000   0.00000
  71        3D+2        0.00000   0.00000   0.00000   0.00000   0.00000
  72        3D-2        0.00000   0.00000   0.00000   0.00000   0.00000
                          36        37        38        39        40
  36        3D-2        2.00005
  37 5   Au 1S          0.00000   0.92419
  38        2PX         0.00000   0.00000   0.00024
  39        2PY         0.00000   0.00000   0.00000   0.00024
  40        2PZ         0.00000   0.00000   0.00000   0.00000   0.10927
  41        3D 0        0.00000   0.00000   0.00000   0.00000   0.00000
  42        3D+1        0.00000   0.00000   0.00000   0.00000   0.00000
  43        3D-1        0.00000   0.00000   0.00000   0.00000   0.00000
  44        3D+2        0.00000   0.00000   0.00000   0.00000   0.00000
  45        3D-2       -0.00011   0.00000   0.00000   0.00000   0.00000
  46 6   Au 1S          0.00000   0.17718   0.00000   0.00000  -0.05631
  47        2PX         0.00000   0.00000  -0.00006   0.00000   0.00000
  48        2PY         0.00000   0.00000   0.00000  -0.00006   0.00000
  49        2PZ         0.00000  -0.06105   0.00000   0.00000  -0.01574
  50        3D 0        0.00000   0.00190   0.00000   0.00000  -0.00035
  51        3D+1        0.00000   0.00000  -0.00023   0.00000   0.00000
  52        3D-1        0.00000   0.00000   0.00000  -0.00023   0.00000
  53        3D+2        0.00000   0.00000   0.00000   0.00000   0.00000
  54        3D-2        0.00000   0.00000   0.00000   0.00000   0.00000
  55 7   Au 1S          0.00000  -0.00072   0.00000   0.00000  -0.01881
  56        2PX         0.00000   0.00000   0.00000   0.00000   0.00000
  57        2PY         0.00000   0.00000   0.00000   0.00000   0.00000
  58        2PZ         0.00000  -0.01678   0.00000   0.00000  -0.02167
  59        3D 0        0.00000  -0.00020   0.00000   0.00000  -0.00109
  60        3D+1        0.00000   0.00000   0.00004   0.00000   0.00000
  61        3D-1        0.00000   0.00000   0.00000   0.00004   0.00000
  62        3D+2        0.00000   0.00000   0.00000   0.00000   0.00000
  63        3D-2        0.00000   0.00000   0.00000   0.00000   0.00000
  64 8   Au 1S          0.00000  -0.00002   0.00000   0.00000  -0.00085
  65        2PX         0.00000   0.00000   0.00000   0.00000   0.00000
  66        2PY         0.00000   0.00000   0.00000   0.00000   0.00000
  67        2PZ         0.00000  -0.00071   0.00000   0.00000  -0.00234
  68        3D 0        0.00000   0.00000   0.00000   0.00000  -0.00006
  69        3D+1        0.00000   0.00000   0.00000   0.00000   0.00000
  70        3D-1        0.00000   0.00000   0.00000   0.00000   0.00000
  71        3D+2        0.00000   0.00000   0.00000   0.00000   0.00000
  72        3D-2        0.00000   0.00000   0.00000   0.00000   0.00000
                          41        42        43        44        45
  41        3D 0        1.99600
  42        3D+1        0.00000   2.00556
  43        3D-1        0.00000   0.00000   2.00556
  44        3D+2        0.00000   0.00000   0.00000   2.00005
  45        3D-2        0.00000   0.00000   0.00000   0.00000   2.00005
  46 6   Au 1S          0.00193   0.00000   0.00000   0.00000   0.00000
  47        2PX         0.00000  -0.00026   0.00000   0.00000   0.00000
  48        2PY         0.00000   0.00000  -0.00026   0.00000   0.00000
  49        2PZ        -0.00028   0.00000   0.00000   0.00000   0.00000
  50        3D 0       -0.00353   0.00000   0.00000   0.00000   0.00000
  51        3D+1        0.00000  -0.00248   0.00000   0.00000   0.00000
  52        3D-1        0.00000   0.00000  -0.00248   0.00000   0.00000
  53        3D+2        0.00000   0.00000   0.00000  -0.00011   0.00000
  54        3D-2        0.00000   0.00000   0.00000   0.00000  -0.00011
  55 7   Au 1S         -0.00021   0.00000   0.00000   0.00000   0.00000
  56        2PX         0.00000   0.00004   0.00000   0.00000   0.00000
  57        2PY         0.00000   0.00000   0.00004   0.00000   0.00000
  58        2PZ        -0.00106   0.00000   0.00000   0.00000   0.00000
  59        3D 0       -0.00001   0.00000   0.00000   0.00000   0.00000
  60        3D+1        0.00000   0.00000   0.00000   0.00000   0.00000
  61        3D-1        0.00000   0.00000   0.00000   0.00000   0.00000
  62        3D+2        0.00000   0.00000   0.00000   0.00000   0.00000
  63        3D-2        0.00000   0.00000   0.00000   0.00000   0.00000
  64 8   Au 1S          0.00000   0.00000   0.00000   0.00000   0.00000
  65        2PX         0.00000   0.00000   0.00000   0.00000   0.00000
  66        2PY         0.00000   0.00000   0.00000   0.00000   0.00000
  67        2PZ        -0.00002   0.00000   0.00000   0.00000   0.00000
  68        3D 0        0.00000   0.00000   0.00000   0.00000   0.00000
  69        3D+1        0.00000   0.00000   0.00000   0.00000   0.00000
  70        3D-1        0.00000   0.00000   0.00000   0.00000   0.00000
  71        3D+2        0.00000   0.00000   0.00000   0.00000   0.00000
  72        3D-2        0.00000   0.00000   0.00000   0.00000   0.00000
                          46        47        48        49        50
  46 6   Au 1S          0.91760
  47        2PX         0.00000   0.00026
  48        2PY         0.00000   0.00000   0.00026
  49        2PZ         0.00000   0.00000   0.00000   0.11240
  50        3D 0        0.00000   0.00000   0.00000   0.00000   1.99596
  51        3D+1        0.00000   0.00000   0.00000   0.00000   0.00000
  52        3D-1        0.00000   0.00000   0.00000   0.00000   0.00000
  53        3D+2        0.00000   0.00000   0.00000   0.00000   0.00000
  54        3D-2        0.00000   0.00000   0.00000   0.00000   0.00000
  55 7   Au 1S          0.17635   0.00000   0.00000  -0.07686   0.00193
  56        2PX         0.00000  -0.00008   0.00000   0.00000   0.00000
  57        2PY         0.00000   0.00000  -0.00008   0.00000   0.00000
  58        2PZ        -0.05687   0.00000   0.00000  -0.01522  -0.00031
  59        3D 0        0.00201   0.00000   0.00000  -0.00030  -0.00351
  60        3D+1        0.00000  -0.00019   0.00000   0.00000   0.00000
  61        3D-1        0.00000   0.00000  -0.00019   0.00000   0.00000
  62        3D+2        0.00000   0.00000   0.00000   0.00000   0.00000
  63        3D-2        0.00000   0.00000   0.00000   0.00000   0.00000
  64 8   Au 1S         -0.00097   0.00000   0.00000  -0.02156  -0.00021
  65        2PX         0.00000   0.00001   0.00000   0.00000   0.00000
  66        2PY         0.00000   0.00000   0.00001   0.00000   0.00000
  67        2PZ        -0.01517   0.00000   0.00000  -0.02166  -0.00109
  68        3D 0       -0.00022   0.00000   0.00000  -0.00196  -0.00001
  69        3D+1        0.00000   0.00006   0.00000   0.00000   0.00000
  70        3D-1        0.00000   0.00000   0.00006   0.00000   0.00000
  71        3D+2        0.00000   0.00000   0.00000   0.00000   0.00000
  72        3D-2        0.00000   0.00000   0.00000   0.00000   0.00000
                          51        52        53        54        55
  51        3D+1        2.00546
  52        3D-1        0.00000   2.00546
  53        3D+2        0.00000   0.00000   2.00005
  54        3D-2        0.00000   0.00000   0.00000   2.00005
  55 7   Au 1S          0.00000   0.00000   0.00000   0.00000   0.90322
  56        2PX        -0.00020   0.00000   0.00000   0.00000   0.00000
  57        2PY         0.00000  -0.00020   0.00000   0.00000   0.00000
  58        2PZ         0.00000   0.00000   0.00000   0.00000   0.00000
  59        3D 0        0.00000   0.00000   0.00000   0.00000   0.00000
  60        3D+1       -0.00247   0.00000   0.00000   0.00000   0.00000
  61        3D-1        0.00000  -0.00247   0.00000   0.00000   0.00000
  62        3D+2        0.00000   0.00000  -0.00011   0.00000   0.00000
  63        3D-2        0.00000   0.00000   0.00000  -0.00011   0.00000
  64 8   Au 1S          0.00000   0.00000   0.00000   0.00000   0.16938
  65        2PX         0.00004   0.00000   0.00000   0.00000   0.00000
  66        2PY         0.00000   0.00004   0.00000   0.00000   0.00000
  67        2PZ         0.00000   0.00000   0.00000   0.00000  -0.02228
  68        3D 0        0.00000   0.00000   0.00000   0.00000   0.00123
  69        3D+1        0.00000   0.00000   0.00000   0.00000   0.00000
  70        3D-1        0.00000   0.00000   0.00000   0.00000   0.00000
  71        3D+2        0.00000   0.00000   0.00000   0.00000   0.00000
  72        3D-2        0.00000   0.00000   0.00000   0.00000   0.00000
                          56        57        58        59        60
  56        2PX         0.00031
  57        2PY         0.00000   0.00031
  58        2PZ         0.00000   0.00000   0.10256
  59        3D 0        0.00000   0.00000   0.00000   1.99529
  60        3D+1        0.00000   0.00000   0.00000   0.00000   2.00537
  61        3D-1        0.00000   0.00000   0.00000   0.00000   0.00000
  62        3D+2        0.00000   0.00000   0.00000   0.00000   0.00000
  63        3D-2        0.00000   0.00000   0.00000   0.00000   0.00000
  64 8   Au 1S          0.00000   0.00000  -0.08495   0.00219   0.00000
  65        2PX        -0.00008   0.00000   0.00000   0.00000  -0.00019
  66        2PY         0.00000  -0.00008   0.00000   0.00000   0.00000
  67        2PZ         0.00000   0.00000  -0.01380  -0.00041   0.00000
  68        3D 0        0.00000   0.00000  -0.00239  -0.00347   0.00000
  69        3D+1       -0.00082   0.00000   0.00000   0.00000  -0.00249
  70        3D-1        0.00000  -0.00082   0.00000   0.00000   0.00000
  71        3D+2        0.00000   0.00000   0.00000   0.00000   0.00000
  72        3D-2        0.00000   0.00000   0.00000   0.00000   0.00000
                          61        62        63        64        65
  61        3D-1        2.00537
  62        3D+2        0.00000   2.00005
  63        3D-2        0.00000   0.00000   2.00005
  64 8   Au 1S          0.00000   0.00000   0.00000   0.91878
  65        2PX         0.00000   0.00000   0.00000   0.00000   0.00027
  66        2PY        -0.00019   0.00000   0.00000   0.00000   0.00000
  67        2PZ         0.00000   0.00000   0.00000   0.00000   0.00000
  68        3D 0        0.00000   0.00000   0.00000   0.00000   0.00000
  69        3D+1        0.00000   0.00000   0.00000   0.00000   0.00000
  70        3D-1       -0.00249   0.00000   0.00000   0.00000   0.00000
  71        3D+2        0.00000  -0.00011   0.00000   0.00000   0.00000
  72        3D-2        0.00000   0.00000  -0.00011   0.00000   0.00000
                          66        67        68        69        70
  66        2PY         0.00027
  67        2PZ         0.00000   0.08809
  68        3D 0        0.00000   0.00000   1.99076
  69        3D+1        0.00000   0.00000   0.00000   2.00675
  70        3D-1        0.00000   0.00000   0.00000   0.00000   2.00675
  71        3D+2        0.00000   0.00000   0.00000   0.00000   0.00000
  72        3D-2        0.00000   0.00000   0.00000   0.00000   0.00000
                          71        72
  71        3D+2        2.00006
  72        3D-2        0.00000   2.00006
     Gross orbital populations:
                           1
   1 1   Au 1S          0.98178
   2        2PX         0.00004
   3        2PY         0.00004
   4        2PZ         0.01056
   5        3D 0        1.98388
   6        3D+1        2.00350
   7        3D-1        2.00350
   8        3D+2        1.99995
   9        3D-2        1.99995
  10 2   Au 1S          1.13243
  11        2PX        -0.00083
  12        2PY        -0.00083
  13        2PZ        -0.11352
  14        3D 0        1.99049
  15        3D+1        2.00007
  16        3D-1        2.00007
  17        3D+2        1.99983
  18        3D-2        1.99983
  19 3   Au 1S          1.12798
  20        2PX        -0.00022
  21        2PY        -0.00022
  22        2PZ        -0.14479
  23        3D 0        1.98944
  24        3D+1        2.00016
  25        3D-1        2.00016
  26        3D+2        1.99983
  27        3D-2        1.99983
  28 4   Au 1S          1.13127
  29        2PX        -0.00025
  30        2PY        -0.00025
  31        2PZ        -0.12162
  32        3D 0        1.98954
  33        3D+1        2.00021
  34        3D-1        2.00021
  35        3D+2        1.99983
  36        3D-2        1.99983
  37 5   Au 1S          1.13127
  38        2PX        -0.00025
  39        2PY        -0.00025
  40        2PZ        -0.12162
  41        3D 0        1.98954
  42        3D+1        2.00021
  43        3D-1        2.00021
  44        3D+2        1.99983
  45        3D-2        1.99983
  46 6   Au 1S          1.12798
  47        2PX        -0.00022
  48        2PY        -0.00022
  49        2PZ        -0.14479
  50        3D 0        1.98944
  51        3D+1        2.00016
  52        3D-1        2.00016
  53        3D+2        1.99983
  54        3D-2        1.99983
  55 7   Au 1S          1.13243
  56        2PX        -0.00083
  57        2PY        -0.00083
  58        2PZ        -0.11352
  59        3D 0        1.99049
  60        3D+1        2.00007
  61        3D-1        2.00007
  62        3D+2        1.99983
  63        3D-2        1.99983
  64 8   Au 1S          0.98178
  65        2PX         0.00004
  66        2PY         0.00004
  67        2PZ         0.01056
  68        3D 0        1.98388
  69        3D+1        2.00350
  70        3D-1        2.00350
  71        3D+2        1.99995
  72        3D-2        1.99995
          Condensed to atoms (all electrons):
               1          2          3          4          5          6
     1  Au  11.011789   0.038118  -0.062612  -0.004005  -0.000077  -0.000001
     2  Au   0.038118  11.012536   0.021110  -0.060366  -0.003779  -0.000077
     3  Au  -0.062612   0.021110  11.037511   0.037467  -0.057398  -0.003828
     4  Au  -0.004005  -0.060366   0.037467  11.041167   0.045756  -0.057398
     5  Au  -0.000077  -0.003779  -0.057398   0.045756  11.041167   0.037467
     6  Au  -0.000001  -0.000077  -0.003828  -0.057398   0.037467  11.037511
     7  Au   0.000000  -0.000001  -0.000077  -0.003779  -0.060366   0.021110
     8  Au   0.000000   0.000000  -0.000001  -0.000077  -0.004005  -0.062612
               7          8
     1  Au   0.000000   0.000000
     2  Au  -0.000001   0.000000
     3  Au  -0.000077  -0.000001
     4  Au  -0.003779  -0.000077
     5  Au  -0.060366  -0.004005
     6  Au   0.021110  -0.062612
     7  Au  11.012536   0.038118
     8  Au   0.038118  11.011789
 Mulliken charges:
               1
     1  Au   0.016787
     2  Au  -0.007542
     3  Au   0.027828
     4  Au   0.001234
     5  Au   0.001234
     6  Au   0.027828
     7  Au  -0.007542
     8  Au   0.016787
 Sum of Mulliken charges =   0.07661
 Mulliken charges with hydrogens summed into heavy atoms:
               1
     1  Au   0.016787
     2  Au  -0.007542
     3  Au   0.027828
     4  Au   0.001234
     5  Au   0.001234
     6  Au   0.027828
     7  Au  -0.007542
     8  Au   0.016787
 Electronic spatial extent (au):  <R**2>=          15137.3789
 Charge=              0.0766 electrons
 Dipole moment (field-independent basis, Debye):
    X=              0.0000    Y=              0.0000    Z=              0.0000  Tot=              0.0000
 Quadrupole moment (field-independent basis, Debye-Ang):
   XX=           -147.4652   YY=           -147.4652   ZZ=            -93.6381
   XY=              0.0000   XZ=              0.0000   YZ=              0.0000
 Traceless Quadrupole moment (field-independent basis, Debye-Ang):
   XX=            -17.9424   YY=            -17.9424   ZZ=             35.8848
   XY=              0.0000   XZ=              0.0000   YZ=              0.0000
 Octapole moment (field-independent basis, Debye-Ang**2):
  XXX=              0.0000  YYY=              0.0000  ZZZ=              0.0000  XYY=              0.0000
  XXY=              0.0000  XXZ=              0.0000  XZZ=              0.0000  YZZ=              0.0000
  YYZ=              0.0000  XYZ=              0.0000
 Hexadecapole moment (field-independent basis, Debye-Ang**3):
 XXXX=           -220.7667 YYYY=           -220.7667 ZZZZ=         -34156.1823 XXXY=              0.0000
 XXXZ=              0.0000 YYYX=              0.0000 YYYZ=              0.0000 ZZZX=              0.0000
 ZZZY=              0.0000 XXYY=            -73.5889 XXZZ=          -7083.6978 YYZZ=          -7083.6978
 XXYZ=              0.0000 YYXZ=              0.0000 ZZXY=              0.0000
 N-N= 2.933204068300D+02 E-N=-1.279965582271D+03  KE= 1.998064441089D+02
 Symmetry AG   KE= 4.007398610043D+01
 Symmetry B1G  KE= 1.982635384228D+01
 Symmetry B2G  KE= 2.008508179868D+01
 Symmetry B3G  KE= 2.008508179865D+01
 Symmetry AU   KE= 1.990003698403D+01
 Symmetry B1U  KE= 4.033615853324D+01
 Symmetry B2U  KE= 1.974987252579D+01
 Symmetry B3U  KE= 1.974987252578D+01
 Orbital energies and kinetic energies (alpha):
                                 1                 2
  40         (SGU)--O         -0.343539          2.572923
  41         (SGG)--O         -0.253217          0.216148
  42         (SGU)--O         -0.252154          0.223658
  43         (SGG)--O         -0.242313          0.188498
  44         (SGU)--O         -0.227786          0.165861
  45         (SGG)--V         -0.206835          0.166085
  46         (SGU)--V         -0.179652          0.204288
  47         (SGG)--V         -0.145063          0.272737
  48         (SGU)--V         -0.100096          0.345491
  49         (PIU)--V         -0.071650          0.093315
 Total kinetic energy from orbitals= 1.996400831991D+02
 No NMR shielding tensors so no spin-rotation constants.
 Leave Link  601 at Fri Jul  8 23:17:24 2022, MaxMem=   268435456 cpu:         1.1
 (Enter /home/palacios/Gaussian09/intel/v.D01/g09/l9999.exe)
 1\1\GINC-COMPUTE-1-0\SP\RSVWN\Gen\Au8\PALACIOS\08-Jul-2022\0\\#p lsda/
 gen pseudo=read pop=reg Scf=(conver=5,maxcycle=100,dsymm,nodamp)\\Au8-
 chain\\0,1\Au,0,0.,0.,0.\Au,0,0.,0.,3.\Au,0,0.,0.,6.\Au,0,0.,0.,9.\Au,
 0,0.,0.,12.\Au,0,0.,0.,15.\Au,0,0.,0.,18.\Au,0,0.,0.,21.\\Version=ES64
 L-G09RevD.01\State=1-SGG\HF=-278.8779269\RMSD=5.651e-06\Dipole=0.,0.,0
 .\Quadrupole=-13.3397189,-13.3397189,26.6794377,0.,0.,0.\PG=D*H [C*(Au
 1Au1Au1Au1.Au1Au1Au1Au1)]\\@


 A MAN BEGINS CUTTING HIS WISDOM TEETH THE 1ST
 TIME HE BITES OFF MORE THAN HE CAN CHEW.
 Job cpu time:       0 days  0 hours  3 minutes  7.3 seconds.
 File lengths (MBytes):  RWF=      5 Int=      0 D2E=      0 Chk=      1 Scr=      1
 Normal termination of Gaussian 09 at Fri Jul  8 23:17:24 2022.
