 Entering Gaussian System, Link 0=g09
 Input=Au9-chain.gjf
 Output=Au9-chain.log
 Initial command:
 /home/palacios/Gaussian09/intel/v.D01/g09/l1.exe "/scratch/palacios/Gau-24357.inp" -scrdir="/scratch/palacios/"
 Entering Link 1 = /home/palacios/Gaussian09/intel/v.D01/g09/l1.exe PID=     24358.
  
 Copyright (c) 1988,1990,1992,1993,1995,1998,2003,2009,2013,
            Gaussian, Inc.  All Rights Reserved.
  
 This is part of the Gaussian(R) 09 program.  It is based on
 the Gaussian(R) 03 system (copyright 2003, Gaussian, Inc.),
 the Gaussian(R) 98 system (copyright 1998, Gaussian, Inc.),
 the Gaussian(R) 94 system (copyright 1995, Gaussian, Inc.),
 the Gaussian 92(TM) system (copyright 1992, Gaussian, Inc.),
 the Gaussian 90(TM) system (copyright 1990, Gaussian, Inc.),
 the Gaussian 88(TM) system (copyright 1988, Gaussian, Inc.),
 the Gaussian 86(TM) system (copyright 1986, Carnegie Mellon
 University), and the Gaussian 82(TM) system (copyright 1983,
 Carnegie Mellon University). Gaussian is a federally registered
 trademark of Gaussian, Inc.
  
 This software contains proprietary and confidential information,
 including trade secrets, belonging to Gaussian, Inc.
  
 This software is provided under written license and may be
 used, copied, transmitted, or stored only in accord with that
 written license.
  
 The following legend is applicable only to US Government
 contracts under FAR:
  
                    RESTRICTED RIGHTS LEGEND
  
 Use, reproduction and disclosure by the US Government is
 subject to restrictions as set forth in subparagraphs (a)
 and (c) of the Commercial Computer Software - Restricted
 Rights clause in FAR 52.227-19.
  
 Gaussian, Inc.
 340 Quinnipiac St., Bldg. 40, Wallingford CT 06492
  
  
 ---------------------------------------------------------------
 Warning -- This program may not be used in any manner that
 competes with the business of Gaussian, Inc. or will provide
 assistance to any competitor of Gaussian, Inc.  The licensee
 of this program is prohibited from giving any competitor of
 Gaussian, Inc. access to this program.  By using this program,
 the user acknowledges that Gaussian, Inc. is engaged in the
 business of creating and licensing software in the field of
 computational chemistry and represents and warrants to the
 licensee that it is not a competitor of Gaussian, Inc. and that
 it will not use this program in any manner prohibited above.
 ---------------------------------------------------------------
  

 Cite this work as:
 Gaussian 09, Revision D.01,
 M. J. Frisch, G. W. Trucks, H. B. Schlegel, G. E. Scuseria, 
 M. A. Robb, J. R. Cheeseman, G. Scalmani, V. Barone, B. Mennucci, 
 G. A. Petersson, H. Nakatsuji, M. Caricato, X. Li, H. P. Hratchian, 
 A. F. Izmaylov, J. Bloino, G. Zheng, J. L. Sonnenberg, M. Hada, 
 M. Ehara, K. Toyota, R. Fukuda, J. Hasegawa, M. Ishida, T. Nakajima, 
 Y. Honda, O. Kitao, H. Nakai, T. Vreven, J. A. Montgomery, Jr., 
 J. E. Peralta, F. Ogliaro, M. Bearpark, J. J. Heyd, E. Brothers, 
 K. N. Kudin, V. N. Staroverov, T. Keith, R. Kobayashi, J. Normand, 
 K. Raghavachari, A. Rendell, J. C. Burant, S. S. Iyengar, J. Tomasi, 
 M. Cossi, N. Rega, J. M. Millam, M. Klene, J. E. Knox, J. B. Cross, 
 V. Bakken, C. Adamo, J. Jaramillo, R. Gomperts, R. E. Stratmann, 
 O. Yazyev, A. J. Austin, R. Cammi, C. Pomelli, J. W. Ochterski, 
 R. L. Martin, K. Morokuma, V. G. Zakrzewski, G. A. Voth, 
 P. Salvador, J. J. Dannenberg, S. Dapprich, A. D. Daniels, 
 O. Farkas, J. B. Foresman, J. V. Ortiz, J. Cioslowski, 
 and D. J. Fox, Gaussian, Inc., Wallingford CT, 2013.
 
 ******************************************
 Gaussian 09:  ES64L-G09RevD.01 24-Apr-2013
                 9-Jul-2022 
 ******************************************
 %mem=1gb
 %NProcShared=8
 Will use up to    8 processors via shared memory.
 %Subst L101 ../../bin
 %Subst L502 ../../bin
 ----------------------------------------------------------------------
 #p lsda/gen pseudo=read pop=reg Scf=(conver=6,maxcycle=100,dsymm,nodam
 p)
 ----------------------------------------------------------------------
 1/38=1/1;
 2/12=2,17=6,18=5,40=1/2;
 3/5=7,11=2,16=1,17=8,25=1,30=1,74=205/1,2,3;
 4//1;
 5/5=2,6=6,7=100,17=200,18=-2,38=5/2;
 6/28=1/1;
 99/5=1,9=1/99;
 Leave Link    1 at Sat Jul  9 15:11:24 2022, MaxMem=   134217728 cpu:         0.4
 (Enter ../../bin/l101.exe)
 ---------
 Au9-chain
 ---------
 Symbolic Z-matrix:
 Charge =  1 Multiplicity = 1
 Au                    0.        0.        0. 
 Au                    0.        0.        3. 
 Au                    0.        0.        6. 
 Au                    0.        0.        9. 
 Au                    0.        0.        12. 
 Au                    0.        0.        15. 
 Au                    0.        0.        18. 
 Au                    0.        0.        21. 
 Au                    0.        0.        24. 
 
 NAtoms=      9 NQM=        9 NQMF=       0 NMMI=      0 NMMIF=      0
                NMic=       0 NMicF=      0.
                    Isotopes and Nuclear Properties:
 (Nuclear quadrupole moments (NQMom) in fm**2, nuclear magnetic moments (NMagM)
  in nuclear magnetons)

  Atom         1           2           3           4           5           6           7           8           9
 IAtWgt=         197         197         197         197         197         197         197         197         197
 AtmWgt= 196.9666000 196.9666000 196.9666000 196.9666000 196.9666000 196.9666000 196.9666000 196.9666000 196.9666000
 NucSpn=           3           3           3           3           3           3           3           3           3
 AtZEff=   0.0000000   0.0000000   0.0000000   0.0000000   0.0000000   0.0000000   0.0000000   0.0000000   0.0000000
 NQMom=   54.7000000  54.7000000  54.7000000  54.7000000  54.7000000  54.7000000  54.7000000  54.7000000  54.7000000
 NMagM=    0.1481590   0.1481590   0.1481590   0.1481590   0.1481590   0.1481590   0.1481590   0.1481590   0.1481590
 AtZNuc=  79.0000000  79.0000000  79.0000000  79.0000000  79.0000000  79.0000000  79.0000000  79.0000000  79.0000000
 Leave Link  101 at Sat Jul  9 15:11:24 2022, MaxMem=   134217728 cpu:         0.3
 (Enter /home/palacios/Gaussian09/intel/v.D01/g09/l202.exe)
                          Input orientation:                          
 ---------------------------------------------------------------------
 Center     Atomic      Atomic             Coordinates (Angstroms)
 Number     Number       Type             X           Y           Z
 ---------------------------------------------------------------------
      1         79           0        0.000000    0.000000    0.000000
      2         79           0        0.000000    0.000000    3.000000
      3         79           0        0.000000    0.000000    6.000000
      4         79           0        0.000000    0.000000    9.000000
      5         79           0        0.000000    0.000000   12.000000
      6         79           0        0.000000    0.000000   15.000000
      7         79           0        0.000000    0.000000   18.000000
      8         79           0        0.000000    0.000000   21.000000
      9         79           0        0.000000    0.000000   24.000000
 ---------------------------------------------------------------------
                    Distance matrix (angstroms):
                    1          2          3          4          5
     1  Au   0.000000
     2  Au   3.000000   0.000000
     3  Au   6.000000   3.000000   0.000000
     4  Au   9.000000   6.000000   3.000000   0.000000
     5  Au  12.000000   9.000000   6.000000   3.000000   0.000000
     6  Au  15.000000  12.000000   9.000000   6.000000   3.000000
     7  Au  18.000000  15.000000  12.000000   9.000000   6.000000
     8  Au  21.000000  18.000000  15.000000  12.000000   9.000000
     9  Au  24.000000  21.000000  18.000000  15.000000  12.000000
                    6          7          8          9
     6  Au   0.000000
     7  Au   3.000000   0.000000
     8  Au   6.000000   3.000000   0.000000
     9  Au   9.000000   6.000000   3.000000   0.000000
 Stoichiometry    Au9(1+)
 Framework group  D*H[O(Au),C*(AuAuAuAu.AuAuAuAu)]
 Deg. of freedom     4
 Full point group                 D*H     NOp   8
 Largest Abelian subgroup         D2H     NOp   8
 Largest concise Abelian subgroup C2      NOp   2
                         Standard orientation:                         
 ---------------------------------------------------------------------
 Center     Atomic      Atomic             Coordinates (Angstroms)
 Number     Number       Type             X           Y           Z
 ---------------------------------------------------------------------
      1         79           0        0.000000    0.000000   12.000000
      2         79           0        0.000000    0.000000    9.000000
      3         79           0        0.000000    0.000000    6.000000
      4         79           0        0.000000    0.000000    3.000000
      5         79           0        0.000000    0.000000    0.000000
      6         79           0        0.000000    0.000000   -3.000000
      7         79           0        0.000000    0.000000   -6.000000
      8         79           0        0.000000    0.000000   -9.000000
      9         79           0        0.000000    0.000000  -12.000000
 ---------------------------------------------------------------------
 Rotational constants (GHZ):      0.0000000      0.0047515      0.0047515
 Leave Link  202 at Sat Jul  9 15:11:24 2022, MaxMem=   134217728 cpu:         0.1
 (Enter /home/palacios/Gaussian09/intel/v.D01/g09/l301.exe)
 General basis read from cards:  (5D, 7F)
 Centers:       1      2      3      4      5      6      7      8      9
 S 3 1.00
     Exponent=  4.4090000000D-01 Coefficients= -7.4780000000D-01
     Exponent=  2.6260000000D-01 Coefficients=  8.1760000000D-01
     Exponent=  6.1700000000D-02 Coefficients=  8.1130000000D-01
 P 3 1.00
     Exponent=  6.6420000000D-01 Coefficients= -4.5900000000D-02
     Exponent=  1.0730000000D-01 Coefficients=  3.7780000000D-01
     Exponent=  3.1900000000D-02 Coefficients=  7.2330000000D-01
 D 4 1.00
     Exponent=  1.3517000000D+00 Coefficients=  4.7870000000D-01
     Exponent=  5.1490000000D-01 Coefficients=  4.5820000000D-01
     Exponent=  1.9940000000D-01 Coefficients=  2.2030000000D-01
     Exponent=  7.7600000000D-02 Coefficients=  4.1200000000D-02
 ****
 ======================================================================================================
                                       Pseudopotential Parameters
 ======================================================================================================
  Center     Atomic      Valence      Angular      Power
  Number     Number     Electrons     Momentum     of R      Exponent        Coefficient   SO-Coeffient
 ======================================================================================================
    1         79           11
                                      G and up 
                                                     2        0.9657000       -0.98690200    0.00000000
                                                     2        2.2904000       -9.68630600    0.00000000
                                                     2        6.4383998      -32.57246399    0.00000000
                                                     2       16.3645992     -118.53087616    0.00000000
                                                     2       55.9892998     -286.25463867    0.00000000
                                                     1      171.1013947      -51.27423096    0.00000000
                                      S - G
                                                     2        1.2248000      -84.96929932    0.00000000
                                                     2        1.4336000      280.17764282    0.00000000
                                                     2        1.8929000     -354.64355469    0.00000000
                                                     2        2.6963000      334.33190918    0.00000000
                                                     2        3.9899001     -219.39260864    0.00000000
                                                     2        6.0054998      170.85874939    0.00000000
                                                     1       14.5825996       56.33872986    0.00000000
                                                     0       39.3106995        6.40929985    0.00000000
                                      P - G
                                                     2        0.9064000       -6.91190100    0.00000000
                                                     2        1.0311000       72.12546539    0.00000000
                                                     2        1.3287000     -114.97533417    0.00000000
                                                     2        1.9037000      123.61668396    0.00000000
                                                     2        2.8364000      -71.13571167    0.00000000
                                                     2        4.5883999       79.01660156    0.00000000
                                                     1       11.1981001       51.28700638    0.00000000
                                                     0       32.2957001        5.65198278    0.00000000
                                      D - G
                                                     2        0.2931000       -0.11365700    0.00000000
                                                     2        1.0301000       -2.40402508    0.00000000
                                                     2        2.0186000       62.58111572    0.00000000
                                                     2        3.4391999      255.44717407    0.00000000
                                                     2        5.1578999     -161.80647278    0.00000000
                                                     2        2.5149000     -175.77076721    0.00000000
                                                     1        8.0623999       63.62079239    0.00000000
                                                     0       41.0284996        6.75031996    0.00000000
                                      F - G
                                                     2        0.4335000      -47.60779953    0.00000000
                                                     2        0.5097000      176.31802368    0.00000000
                                                     2        0.5796000     -168.67689514    0.00000000
                                                     2        0.7711000       54.49244690    0.00000000
                                                     2        2.5934999       37.71539307    0.00000000
                                                     2        8.3907003      -24.13967514    0.00000000
                                                     1        6.9294000       49.16802216    0.00000000
                                                     0       22.2588997        4.75958586    0.00000000
    2         79           11
                                      G and up 
                                                     2        0.9657000       -0.98690200    0.00000000
                                                     2        2.2904000       -9.68630600    0.00000000
                                                     2        6.4383998      -32.57246399    0.00000000
                                                     2       16.3645992     -118.53087616    0.00000000
                                                     2       55.9892998     -286.25463867    0.00000000
                                                     1      171.1013947      -51.27423096    0.00000000
                                      S - G
                                                     2        1.2248000      -84.96929932    0.00000000
                                                     2        1.4336000      280.17764282    0.00000000
                                                     2        1.8929000     -354.64355469    0.00000000
                                                     2        2.6963000      334.33190918    0.00000000
                                                     2        3.9899001     -219.39260864    0.00000000
                                                     2        6.0054998      170.85874939    0.00000000
                                                     1       14.5825996       56.33872986    0.00000000
                                                     0       39.3106995        6.40929985    0.00000000
                                      P - G
                                                     2        0.9064000       -6.91190100    0.00000000
                                                     2        1.0311000       72.12546539    0.00000000
                                                     2        1.3287000     -114.97533417    0.00000000
                                                     2        1.9037000      123.61668396    0.00000000
                                                     2        2.8364000      -71.13571167    0.00000000
                                                     2        4.5883999       79.01660156    0.00000000
                                                     1       11.1981001       51.28700638    0.00000000
                                                     0       32.2957001        5.65198278    0.00000000
                                      D - G
                                                     2        0.2931000       -0.11365700    0.00000000
                                                     2        1.0301000       -2.40402508    0.00000000
                                                     2        2.0186000       62.58111572    0.00000000
                                                     2        3.4391999      255.44717407    0.00000000
                                                     2        5.1578999     -161.80647278    0.00000000
                                                     2        2.5149000     -175.77076721    0.00000000
                                                     1        8.0623999       63.62079239    0.00000000
                                                     0       41.0284996        6.75031996    0.00000000
                                      F - G
                                                     2        0.4335000      -47.60779953    0.00000000
                                                     2        0.5097000      176.31802368    0.00000000
                                                     2        0.5796000     -168.67689514    0.00000000
                                                     2        0.7711000       54.49244690    0.00000000
                                                     2        2.5934999       37.71539307    0.00000000
                                                     2        8.3907003      -24.13967514    0.00000000
                                                     1        6.9294000       49.16802216    0.00000000
                                                     0       22.2588997        4.75958586    0.00000000
    3         79           11
                                      G and up 
                                                     2        0.9657000       -0.98690200    0.00000000
                                                     2        2.2904000       -9.68630600    0.00000000
                                                     2        6.4383998      -32.57246399    0.00000000
                                                     2       16.3645992     -118.53087616    0.00000000
                                                     2       55.9892998     -286.25463867    0.00000000
                                                     1      171.1013947      -51.27423096    0.00000000
                                      S - G
                                                     2        1.2248000      -84.96929932    0.00000000
                                                     2        1.4336000      280.17764282    0.00000000
                                                     2        1.8929000     -354.64355469    0.00000000
                                                     2        2.6963000      334.33190918    0.00000000
                                                     2        3.9899001     -219.39260864    0.00000000
                                                     2        6.0054998      170.85874939    0.00000000
                                                     1       14.5825996       56.33872986    0.00000000
                                                     0       39.3106995        6.40929985    0.00000000
                                      P - G
                                                     2        0.9064000       -6.91190100    0.00000000
                                                     2        1.0311000       72.12546539    0.00000000
                                                     2        1.3287000     -114.97533417    0.00000000
                                                     2        1.9037000      123.61668396    0.00000000
                                                     2        2.8364000      -71.13571167    0.00000000
                                                     2        4.5883999       79.01660156    0.00000000
                                                     1       11.1981001       51.28700638    0.00000000
                                                     0       32.2957001        5.65198278    0.00000000
                                      D - G
                                                     2        0.2931000       -0.11365700    0.00000000
                                                     2        1.0301000       -2.40402508    0.00000000
                                                     2        2.0186000       62.58111572    0.00000000
                                                     2        3.4391999      255.44717407    0.00000000
                                                     2        5.1578999     -161.80647278    0.00000000
                                                     2        2.5149000     -175.77076721    0.00000000
                                                     1        8.0623999       63.62079239    0.00000000
                                                     0       41.0284996        6.75031996    0.00000000
                                      F - G
                                                     2        0.4335000      -47.60779953    0.00000000
                                                     2        0.5097000      176.31802368    0.00000000
                                                     2        0.5796000     -168.67689514    0.00000000
                                                     2        0.7711000       54.49244690    0.00000000
                                                     2        2.5934999       37.71539307    0.00000000
                                                     2        8.3907003      -24.13967514    0.00000000
                                                     1        6.9294000       49.16802216    0.00000000
                                                     0       22.2588997        4.75958586    0.00000000
    4         79           11
                                      G and up 
                                                     2        0.9657000       -0.98690200    0.00000000
                                                     2        2.2904000       -9.68630600    0.00000000
                                                     2        6.4383998      -32.57246399    0.00000000
                                                     2       16.3645992     -118.53087616    0.00000000
                                                     2       55.9892998     -286.25463867    0.00000000
                                                     1      171.1013947      -51.27423096    0.00000000
                                      S - G
                                                     2        1.2248000      -84.96929932    0.00000000
                                                     2        1.4336000      280.17764282    0.00000000
                                                     2        1.8929000     -354.64355469    0.00000000
                                                     2        2.6963000      334.33190918    0.00000000
                                                     2        3.9899001     -219.39260864    0.00000000
                                                     2        6.0054998      170.85874939    0.00000000
                                                     1       14.5825996       56.33872986    0.00000000
                                                     0       39.3106995        6.40929985    0.00000000
                                      P - G
                                                     2        0.9064000       -6.91190100    0.00000000
                                                     2        1.0311000       72.12546539    0.00000000
                                                     2        1.3287000     -114.97533417    0.00000000
                                                     2        1.9037000      123.61668396    0.00000000
                                                     2        2.8364000      -71.13571167    0.00000000
                                                     2        4.5883999       79.01660156    0.00000000
                                                     1       11.1981001       51.28700638    0.00000000
                                                     0       32.2957001        5.65198278    0.00000000
                                      D - G
                                                     2        0.2931000       -0.11365700    0.00000000
                                                     2        1.0301000       -2.40402508    0.00000000
                                                     2        2.0186000       62.58111572    0.00000000
                                                     2        3.4391999      255.44717407    0.00000000
                                                     2        5.1578999     -161.80647278    0.00000000
                                                     2        2.5149000     -175.77076721    0.00000000
                                                     1        8.0623999       63.62079239    0.00000000
                                                     0       41.0284996        6.75031996    0.00000000
                                      F - G
                                                     2        0.4335000      -47.60779953    0.00000000
                                                     2        0.5097000      176.31802368    0.00000000
                                                     2        0.5796000     -168.67689514    0.00000000
                                                     2        0.7711000       54.49244690    0.00000000
                                                     2        2.5934999       37.71539307    0.00000000
                                                     2        8.3907003      -24.13967514    0.00000000
                                                     1        6.9294000       49.16802216    0.00000000
                                                     0       22.2588997        4.75958586    0.00000000
    5         79           11
                                      G and up 
                                                     2        0.9657000       -0.98690200    0.00000000
                                                     2        2.2904000       -9.68630600    0.00000000
                                                     2        6.4383998      -32.57246399    0.00000000
                                                     2       16.3645992     -118.53087616    0.00000000
                                                     2       55.9892998     -286.25463867    0.00000000
                                                     1      171.1013947      -51.27423096    0.00000000
                                      S - G
                                                     2        1.2248000      -84.96929932    0.00000000
                                                     2        1.4336000      280.17764282    0.00000000
                                                     2        1.8929000     -354.64355469    0.00000000
                                                     2        2.6963000      334.33190918    0.00000000
                                                     2        3.9899001     -219.39260864    0.00000000
                                                     2        6.0054998      170.85874939    0.00000000
                                                     1       14.5825996       56.33872986    0.00000000
                                                     0       39.3106995        6.40929985    0.00000000
                                      P - G
                                                     2        0.9064000       -6.91190100    0.00000000
                                                     2        1.0311000       72.12546539    0.00000000
                                                     2        1.3287000     -114.97533417    0.00000000
                                                     2        1.9037000      123.61668396    0.00000000
                                                     2        2.8364000      -71.13571167    0.00000000
                                                     2        4.5883999       79.01660156    0.00000000
                                                     1       11.1981001       51.28700638    0.00000000
                                                     0       32.2957001        5.65198278    0.00000000
                                      D - G
                                                     2        0.2931000       -0.11365700    0.00000000
                                                     2        1.0301000       -2.40402508    0.00000000
                                                     2        2.0186000       62.58111572    0.00000000
                                                     2        3.4391999      255.44717407    0.00000000
                                                     2        5.1578999     -161.80647278    0.00000000
                                                     2        2.5149000     -175.77076721    0.00000000
                                                     1        8.0623999       63.62079239    0.00000000
                                                     0       41.0284996        6.75031996    0.00000000
                                      F - G
                                                     2        0.4335000      -47.60779953    0.00000000
                                                     2        0.5097000      176.31802368    0.00000000
                                                     2        0.5796000     -168.67689514    0.00000000
                                                     2        0.7711000       54.49244690    0.00000000
                                                     2        2.5934999       37.71539307    0.00000000
                                                     2        8.3907003      -24.13967514    0.00000000
                                                     1        6.9294000       49.16802216    0.00000000
                                                     0       22.2588997        4.75958586    0.00000000
    6         79           11
                                      G and up 
                                                     2        0.9657000       -0.98690200    0.00000000
                                                     2        2.2904000       -9.68630600    0.00000000
                                                     2        6.4383998      -32.57246399    0.00000000
                                                     2       16.3645992     -118.53087616    0.00000000
                                                     2       55.9892998     -286.25463867    0.00000000
                                                     1      171.1013947      -51.27423096    0.00000000
                                      S - G
                                                     2        1.2248000      -84.96929932    0.00000000
                                                     2        1.4336000      280.17764282    0.00000000
                                                     2        1.8929000     -354.64355469    0.00000000
                                                     2        2.6963000      334.33190918    0.00000000
                                                     2        3.9899001     -219.39260864    0.00000000
                                                     2        6.0054998      170.85874939    0.00000000
                                                     1       14.5825996       56.33872986    0.00000000
                                                     0       39.3106995        6.40929985    0.00000000
                                      P - G
                                                     2        0.9064000       -6.91190100    0.00000000
                                                     2        1.0311000       72.12546539    0.00000000
                                                     2        1.3287000     -114.97533417    0.00000000
                                                     2        1.9037000      123.61668396    0.00000000
                                                     2        2.8364000      -71.13571167    0.00000000
                                                     2        4.5883999       79.01660156    0.00000000
                                                     1       11.1981001       51.28700638    0.00000000
                                                     0       32.2957001        5.65198278    0.00000000
                                      D - G
                                                     2        0.2931000       -0.11365700    0.00000000
                                                     2        1.0301000       -2.40402508    0.00000000
                                                     2        2.0186000       62.58111572    0.00000000
                                                     2        3.4391999      255.44717407    0.00000000
                                                     2        5.1578999     -161.80647278    0.00000000
                                                     2        2.5149000     -175.77076721    0.00000000
                                                     1        8.0623999       63.62079239    0.00000000
                                                     0       41.0284996        6.75031996    0.00000000
                                      F - G
                                                     2        0.4335000      -47.60779953    0.00000000
                                                     2        0.5097000      176.31802368    0.00000000
                                                     2        0.5796000     -168.67689514    0.00000000
                                                     2        0.7711000       54.49244690    0.00000000
                                                     2        2.5934999       37.71539307    0.00000000
                                                     2        8.3907003      -24.13967514    0.00000000
                                                     1        6.9294000       49.16802216    0.00000000
                                                     0       22.2588997        4.75958586    0.00000000
    7         79           11
                                      G and up 
                                                     2        0.9657000       -0.98690200    0.00000000
                                                     2        2.2904000       -9.68630600    0.00000000
                                                     2        6.4383998      -32.57246399    0.00000000
                                                     2       16.3645992     -118.53087616    0.00000000
                                                     2       55.9892998     -286.25463867    0.00000000
                                                     1      171.1013947      -51.27423096    0.00000000
                                      S - G
                                                     2        1.2248000      -84.96929932    0.00000000
                                                     2        1.4336000      280.17764282    0.00000000
                                                     2        1.8929000     -354.64355469    0.00000000
                                                     2        2.6963000      334.33190918    0.00000000
                                                     2        3.9899001     -219.39260864    0.00000000
                                                     2        6.0054998      170.85874939    0.00000000
                                                     1       14.5825996       56.33872986    0.00000000
                                                     0       39.3106995        6.40929985    0.00000000
                                      P - G
                                                     2        0.9064000       -6.91190100    0.00000000
                                                     2        1.0311000       72.12546539    0.00000000
                                                     2        1.3287000     -114.97533417    0.00000000
                                                     2        1.9037000      123.61668396    0.00000000
                                                     2        2.8364000      -71.13571167    0.00000000
                                                     2        4.5883999       79.01660156    0.00000000
                                                     1       11.1981001       51.28700638    0.00000000
                                                     0       32.2957001        5.65198278    0.00000000
                                      D - G
                                                     2        0.2931000       -0.11365700    0.00000000
                                                     2        1.0301000       -2.40402508    0.00000000
                                                     2        2.0186000       62.58111572    0.00000000
                                                     2        3.4391999      255.44717407    0.00000000
                                                     2        5.1578999     -161.80647278    0.00000000
                                                     2        2.5149000     -175.77076721    0.00000000
                                                     1        8.0623999       63.62079239    0.00000000
                                                     0       41.0284996        6.75031996    0.00000000
                                      F - G
                                                     2        0.4335000      -47.60779953    0.00000000
                                                     2        0.5097000      176.31802368    0.00000000
                                                     2        0.5796000     -168.67689514    0.00000000
                                                     2        0.7711000       54.49244690    0.00000000
                                                     2        2.5934999       37.71539307    0.00000000
                                                     2        8.3907003      -24.13967514    0.00000000
                                                     1        6.9294000       49.16802216    0.00000000
                                                     0       22.2588997        4.75958586    0.00000000
    8         79           11
                                      G and up 
                                                     2        0.9657000       -0.98690200    0.00000000
                                                     2        2.2904000       -9.68630600    0.00000000
                                                     2        6.4383998      -32.57246399    0.00000000
                                                     2       16.3645992     -118.53087616    0.00000000
                                                     2       55.9892998     -286.25463867    0.00000000
                                                     1      171.1013947      -51.27423096    0.00000000
                                      S - G
                                                     2        1.2248000      -84.96929932    0.00000000
                                                     2        1.4336000      280.17764282    0.00000000
                                                     2        1.8929000     -354.64355469    0.00000000
                                                     2        2.6963000      334.33190918    0.00000000
                                                     2        3.9899001     -219.39260864    0.00000000
                                                     2        6.0054998      170.85874939    0.00000000
                                                     1       14.5825996       56.33872986    0.00000000
                                                     0       39.3106995        6.40929985    0.00000000
                                      P - G
                                                     2        0.9064000       -6.91190100    0.00000000
                                                     2        1.0311000       72.12546539    0.00000000
                                                     2        1.3287000     -114.97533417    0.00000000
                                                     2        1.9037000      123.61668396    0.00000000
                                                     2        2.8364000      -71.13571167    0.00000000
                                                     2        4.5883999       79.01660156    0.00000000
                                                     1       11.1981001       51.28700638    0.00000000
                                                     0       32.2957001        5.65198278    0.00000000
                                      D - G
                                                     2        0.2931000       -0.11365700    0.00000000
                                                     2        1.0301000       -2.40402508    0.00000000
                                                     2        2.0186000       62.58111572    0.00000000
                                                     2        3.4391999      255.44717407    0.00000000
                                                     2        5.1578999     -161.80647278    0.00000000
                                                     2        2.5149000     -175.77076721    0.00000000
                                                     1        8.0623999       63.62079239    0.00000000
                                                     0       41.0284996        6.75031996    0.00000000
                                      F - G
                                                     2        0.4335000      -47.60779953    0.00000000
                                                     2        0.5097000      176.31802368    0.00000000
                                                     2        0.5796000     -168.67689514    0.00000000
                                                     2        0.7711000       54.49244690    0.00000000
                                                     2        2.5934999       37.71539307    0.00000000
                                                     2        8.3907003      -24.13967514    0.00000000
                                                     1        6.9294000       49.16802216    0.00000000
                                                     0       22.2588997        4.75958586    0.00000000
    9         79           11
                                      G and up 
                                                     2        0.9657000       -0.98690200    0.00000000
                                                     2        2.2904000       -9.68630600    0.00000000
                                                     2        6.4383998      -32.57246399    0.00000000
                                                     2       16.3645992     -118.53087616    0.00000000
                                                     2       55.9892998     -286.25463867    0.00000000
                                                     1      171.1013947      -51.27423096    0.00000000
                                      S - G
                                                     2        1.2248000      -84.96929932    0.00000000
                                                     2        1.4336000      280.17764282    0.00000000
                                                     2        1.8929000     -354.64355469    0.00000000
                                                     2        2.6963000      334.33190918    0.00000000
                                                     2        3.9899001     -219.39260864    0.00000000
                                                     2        6.0054998      170.85874939    0.00000000
                                                     1       14.5825996       56.33872986    0.00000000
                                                     0       39.3106995        6.40929985    0.00000000
                                      P - G
                                                     2        0.9064000       -6.91190100    0.00000000
                                                     2        1.0311000       72.12546539    0.00000000
                                                     2        1.3287000     -114.97533417    0.00000000
                                                     2        1.9037000      123.61668396    0.00000000
                                                     2        2.8364000      -71.13571167    0.00000000
                                                     2        4.5883999       79.01660156    0.00000000
                                                     1       11.1981001       51.28700638    0.00000000
                                                     0       32.2957001        5.65198278    0.00000000
                                      D - G
                                                     2        0.2931000       -0.11365700    0.00000000
                                                     2        1.0301000       -2.40402508    0.00000000
                                                     2        2.0186000       62.58111572    0.00000000
                                                     2        3.4391999      255.44717407    0.00000000
                                                     2        5.1578999     -161.80647278    0.00000000
                                                     2        2.5149000     -175.77076721    0.00000000
                                                     1        8.0623999       63.62079239    0.00000000
                                                     0       41.0284996        6.75031996    0.00000000
                                      F - G
                                                     2        0.4335000      -47.60779953    0.00000000
                                                     2        0.5097000      176.31802368    0.00000000
                                                     2        0.5796000     -168.67689514    0.00000000
                                                     2        0.7711000       54.49244690    0.00000000
                                                     2        2.5934999       37.71539307    0.00000000
                                                     2        8.3907003      -24.13967514    0.00000000
                                                     1        6.9294000       49.16802216    0.00000000
                                                     0       22.2588997        4.75958586    0.00000000
 ======================================================================================================
 Ernie: Thresh=  0.10000D-02 Tol=  0.10000D-05 Strict=F.
 There are    24 symmetry adapted cartesian basis functions of AG  symmetry.
 There are     5 symmetry adapted cartesian basis functions of B1G symmetry.
 There are     9 symmetry adapted cartesian basis functions of B2G symmetry.
 There are     9 symmetry adapted cartesian basis functions of B3G symmetry.
 There are     4 symmetry adapted cartesian basis functions of AU  symmetry.
 There are    21 symmetry adapted cartesian basis functions of B1U symmetry.
 There are     9 symmetry adapted cartesian basis functions of B2U symmetry.
 There are     9 symmetry adapted cartesian basis functions of B3U symmetry.
 There are    19 symmetry adapted basis functions of AG  symmetry.
 There are     5 symmetry adapted basis functions of B1G symmetry.
 There are     9 symmetry adapted basis functions of B2G symmetry.
 There are     9 symmetry adapted basis functions of B3G symmetry.
 There are     4 symmetry adapted basis functions of AU  symmetry.
 There are    17 symmetry adapted basis functions of B1U symmetry.
 There are     9 symmetry adapted basis functions of B2U symmetry.
 There are     9 symmetry adapted basis functions of B3U symmetry.
    81 basis functions,   324 primitive gaussians,    90 cartesian basis functions
    49 alpha electrons       49 beta electrons
       nuclear repulsion energy       351.3289384302 Hartrees.
 IExCor=  205 DFT=T Ex=S Corr=VWN ExCW=0 ScaHFX=  0.000000
 ScaDFX=  1.000000  1.000000  1.000000  1.000000 ScalE2=  1.000000  1.000000
 IRadAn=      0 IRanWt=     -1 IRanGd=            0 ICorTp=0 IEmpDi=  4
 NAtoms=    9 NActive=    9 NUniq=    5 SFac= 3.24D+00 NAtFMM=   60 NAOKFM=F Big=F
 Integral buffers will be    131072 words long.
 Raffenetti 2 integral format.
 Two-electron integral symmetry is turned on.
 Leave Link  301 at Sat Jul  9 15:11:24 2022, MaxMem=   134217728 cpu:         0.4
 (Enter /home/palacios/Gaussian09/intel/v.D01/g09/l302.exe)
 NPDir=0 NMtPBC=     1 NCelOv=     1 NCel=       1 NClECP=     1 NCelD=      1
         NCelK=      1 NCelE2=     1 NClLst=     1 CellRange=     0.0.
 One-electron integrals computed using PRISM.
 One-electron integral symmetry used in STVInt
   8 Symmetry operations used in ECPInt.
 ECPInt:  NShTT=     378 NPrTT=    4203 LenC2=     369 LenP2D=    3180.
 LDataN:  DoStor=T MaxTD1= 6 Len=  172
 NBasis=    81 RedAO= T EigKep=  4.24D-02  NBF=    19     5     9     9     4    17     9     9
 NBsUse=    81 1.00D-06 EigRej= -1.00D+00 NBFU=    19     5     9     9     4    17     9     9
 Precomputing XC quadrature grid using
 IXCGrd= 4 IRadAn=           0 IRanWt=          -1 IRanGd=           0 AccXCQ= 0.00D+00.
 Defaulting to unpruned grid for atomic number  79.
 Defaulting to unpruned grid for atomic number  79.
 Defaulting to unpruned grid for atomic number  79.
 Defaulting to unpruned grid for atomic number  79.
 Defaulting to unpruned grid for atomic number  79.
 Generated NRdTot=       0 NPtTot=           0 NUsed=           0 NTot=          32
 NSgBfM=    90    90    90    90    90 MxSgAt=     9 MxSgA2=     9.
 Leave Link  302 at Sat Jul  9 15:11:25 2022, MaxMem=   134217728 cpu:         5.3
 (Enter /home/palacios/Gaussian09/intel/v.D01/g09/l303.exe)
 DipDrv:  MaxL=1.
 Leave Link  303 at Sat Jul  9 15:11:25 2022, MaxMem=   134217728 cpu:         0.2
 (Enter /home/palacios/Gaussian09/intel/v.D01/g09/l401.exe)
 ExpMin= 3.19D-02 ExpMax= 1.35D+00 ExpMxC= 1.35D+00 IAcc=3 IRadAn=         5 AccDes= 0.00D+00
 Harris functional with IExCor=  205 and IRadAn=       5 diagonalized for initial guess.
 HarFok:  IExCor=  205 AccDes= 0.00D+00 IRadAn=         5 IDoV= 1 UseB2=F ITyADJ=14
 ICtDFT=  3500011 ScaDFX=  1.000000  1.000000  1.000000  1.000000
 Defaulting to unpruned grid for atomic number  79.
 Defaulting to unpruned grid for atomic number  79.
 Defaulting to unpruned grid for atomic number  79.
 Defaulting to unpruned grid for atomic number  79.
 Defaulting to unpruned grid for atomic number  79.
 Defaulting to unpruned grid for atomic number  79.
 Defaulting to unpruned grid for atomic number  79.
 Defaulting to unpruned grid for atomic number  79.
 FoFCou: FMM=F IPFlag=           0 FMFlag=      100000 FMFlg1=           0
         NFxFlg=           0 DoJE=T BraDBF=F KetDBF=T FulRan=T
         wScrn=  0.000000 ICntrl=     500 IOpCl=  0 I1Cent=   200000004 NGrid=           0
         NMat0=    1 NMatS0=      1 NMatT0=    0 NMatD0=    1 NMtDS0=    0 NMtDT0=    0
 Petite list used in FoFCou.
 Harris En= -313.182774787712    
 JPrj=0 DoOrth=F DoCkMO=F.
 Initial guess orbital symmetries:
       Occupied  (SGG) (SGU) (SGG) (PIG) (PIG) (SGU) (PIU) (PIU)
                 (PIG) (PIG) (PIU) (PIU) (SGG) (DLTG) (DLTG) (DLTU)
                 (DLTU) (PIG) (PIG) (DLTG) (DLTG) (DLTU) (DLTU)
                 (DLTG) (DLTG) (DLTU) (DLTU) (DLTG) (DLTG) (DLTU)
                 (DLTU) (DLTG) (DLTG) (PIU) (PIU) (SGU) (PIG) (PIG)
                 (PIU) (PIU) (SGG) (PIG) (PIG) (SGU) (SGG) (SGG)
                 (SGU) (SGG) (SGU)
       Virtual   (SGG) (SGU) (SGG) (SGU) (SGG) (PIU) (PIU) (PIG)
                 (PIG) (PIU) (PIU) (PIG) (PIG) (SGU) (PIU) (PIU)
                 (PIG) (PIG) (PIU) (PIU) (PIG) (PIG) (SGG) (PIU)
                 (PIU) (SGU) (SGG) (SGU) (SGG) (SGU) (SGG) (SGU)
 The electronic state of the initial guess is 1-SGG.
 Leave Link  401 at Sat Jul  9 15:11:25 2022, MaxMem=   134217728 cpu:         1.2
 (Enter ../../bin/l502.exe)
 Closed shell SCF:
 Using DIIS extrapolation, IDIIS=  1040.
 Integral symmetry usage will be decided dynamically.
 Keep J ints in memory in symmetry-blocked form, NReq=6475612.
 IVT=       38010 IEndB=       38010 NGot=   134217728 MDV=   133455838
 LenX=   133455838 LenY=   133447297
 Requested convergence on RMS density matrix=1.00D-06 within 100 cycles.
 Requested convergence on MAX density matrix=1.00D-04.
 Requested convergence on             energy=1.00D-04.
 No special actions if energy rises.
 FoFCou: FMM=F IPFlag=           0 FMFlag=           0 FMFlg1=           0
         NFxFlg=           0 DoJE=F BraDBF=F KetDBF=F FulRan=T
         wScrn=  0.000000 ICntrl=     600 IOpCl=  0 I1Cent=           0 NGrid=           0
         NMat0=    1 NMatS0=   3321 NMatT0=    0 NMatD0=    1 NMtDS0=    0 NMtDT0=    0
 Petite list used in FoFCou.

 Cycle   1  Pass 1  IDiag  1:
 
  ****************************************************************** 
  ***                                                            *** 
  ***                      A t o m i s t i c                     *** 
  ***                      N a n o                               *** 
  ***                      T r a n s p o r t                     *** 
  ***                      G 0 9                                 *** 
  ***                                                            *** 
  ****************************************************************** 
  ***                     Version: 2.7.0                         *** 
  ****************************************************************** 
  *  Copyright (c) by                                              * 
  *                                                                * 
  *  Juan Jose Palacios (1)                                        * 
  *  David Jacob (2)                                               * 
  *  Maria Soriano (1,5)                                           * 
  *  Angel J. Perez-Jimenez (3)                                    * 
  *  Emilio SanFabian (3)                                          * 
  *  Jose Antonio Antonio Verges (4)                               * 
  *  Enrique Louis (5)                                             * 
  *  Wynand Dednam (5)                                             * 
  *                                                                * 
  * (1) Departamento de Fisica de la Materia Condensada            * 
  *     Universidad Autonoma de Madrid                             * 
  *     28049 Madrid (SPAIN)                                       * 
  * (2) Theory Department                                          * 
  *     Max-Planck-Institute for Microstructure Physics            * 
  *     Halle, 06120 (GERMANY)                                     * 
  * (3) Departamento de Quimica Fisica                             * 
  *     Universidad de Alicante                                    * 
  *     03690 Alicante (SPAIN)                                     * 
  * (4) Insto. de Ciencias de Materiales de Madrid (ICMM)          * 
  *     Consejo Superior de Investigacion y Ciencia (CSIC)         * 
  *     28049 Madrid (SPAIN)                                       * 
  * (5) Departamento de Fisica Aplicada                            * 
  *     Universidad de Alicante                                    * 
  *     03690 Alicante (SPAIN)                                     * 
  *                                                                * 
  ****************************************************************** 
 
  ****************************************************************** 
  *                                                                * 
  *              Initializing ANT.G09 modules                      * 
  *                                                                * 
  ****************************************************************** 
 
 Scanning Au9-chain.ant file for parameter specifications...
 Done.
 ****************************
 Basic calculation parameters
 ****************************
 ALPHA      =   5.000000000000000E-002
 NPULAY     =                      5
 CHARGEACC  =   1.000000000000000E-005  %
 FERMIACC   =   1.000000000000000E-005  %
 PACC       =   1.000000000000000E-007  %
 FULLACC    =  F
 MAX        =                     15
 SELFACC    =   1.000000000000000E-006
 SMALL      =   0.100000000000000     
 SMALLD     =   0.100000000000000       A
 BIASVOLT   =   0.000000000000000E+000  V
 QEXCESS    =   0.000000000000000E+000 electrons
 ETA        =   1.000000000000000E-003
 GLUE       =    1.00000000000000     
 FERMISTART =   -5.00000000000000       eV
 SOC        =  F
 SOCFAC     =   0.000000000000000E+000
 SOC_CFF_P  =   0.000000000000000E+000  eV
 SOC_CFF_D  =   0.000000000000000E+000  eV
 SOC_CFF_F  =   0.000000000000000E+000  eV
 ROT        =  F
 THETA      =   0.000000000000000E+000  degrees
 PHI        =   0.000000000000000E+000  degrees
 SL         =   1.000000000000000E-003
 DMIMAG     =  F
 FMIXING    =  F
 ************************
 Bethe lattice parameters
 ************************
 TYPE1      = 1DLEAD    
 TYPE2      = 1DLEAD    
 BLPAR1     = Papacon             
 BLPAR2     = Papacon             
 NEMBED1    =                      4
 NEMBED2    =                      4
 NPC        =                      1
 NATOMEL1   = ? 
 NATOMEL2   = ? 
 OVERLAP    = System Overlap
 *************************
 Spin transport parameters
 *************************
 SWOFFSPL   =   1.000000000000000E-003
 NSPINLOCK  =                      0
 NALPHA     =                     -1
 NBETA      =                     -1
 DU         =  F
 UD         =  F
 DD         =  F
 MRSTART    =                      0
 SPINDEL    =  F
 SPINEDIT   =                      0
 SOCFACATOM =                      0
 SPINROTATO =                      0
 SOCEDIT    =                      0
 ***********************
 Correlations parameters
 ***********************
 CORRBLOCKS =                      0
 PORTHO     =  F
 HYBFUNC    =  F
 DFT+U      =  F
 DIAGCORRBL =  F
 *****************
 Output parameters
 *****************
 HAMILTON   =  F
 MULLIKEN   =  F
 HTRANSM    =  F
 ESTEP      =   1.000000000000000E-002
 DOSENERGY  =   0.000000000000000E+000
 EW1        =   -5.00000000000000     
 EW2        =    5.00000000000000     
 LDOS_BEG   =                      1
 LDOS_END   =                      0
 RTM_BEG    =                      1
 RTM_END    =                      0
 NCHANNELS  =                      0
 LEADDOS    =  T
 PRTHATOM   =                      1
 -------------------
 Initializing device
 -------------------
 ----------------------------------------------------------
 Analyzing cluster for the connection of the  Bethe Lattice
 ----------------------------------------------------------
 
 Atom type of lead 1: Au
 Atom type of lead 2: Au
 
    1   79  11.    9    1    9
    2   79  11.    9   10   18
    3   79  11.    9   19   27
    4   79  11.    9   28   36
    5   79  11.    9   37   45
    6   79  11.    9   46   54
    7   79  11.    9   55   63
    8   79  11.    9   64   72
    9   79  11.    9   73   81
 
  Center of charge:
   0.000000   0.000000   0.000000
 
                     4 nlead1
  Atoms in left electrode:                     4
   1  Au   0.000000   0.000000  22.676714
   2  Au   0.000000   0.000000  17.007535
   3  Au   0.000000   0.000000  11.338357
   4  Au   0.000000   0.000000   5.669178
 
  Atoms in molecule:                     0
 
  Atoms in right electrode:                     5
   5  Au   0.000000   0.000000 -22.676714
   6  Au   0.000000   0.000000 -17.007535
   7  Au   0.000000   0.000000 -11.338357
   8  Au   0.000000   0.000000  -5.669178
   9  Au   0.000000   0.000000   0.000000
 
 ---------------------------------------------------
 ----- Details on device and contacting atoms ------
 ---------------------------------------------------
 NEmbed(1) =                     4
 NEmbed(2) =                     4
 Number of electrons in neutral reduced device (NCDEl) =                     11
 First and last orbital in reduced device
 NCDAO1 =                     37
 NCDAO2 =                     45
 ---------------------------------------------------
 -------------------------------------------------------------------------------
 ------------
 Starting calculation with density matrix from file  
 P.Au9-chain.dat                                   
 -------------------------------------------------------------------------------
 ------------
 Tr[P*S] of initial guess =   98.8479517115555     
 --------------------------------
 Defaulting to unpruned grid for atomic number  79.
 Defaulting to unpruned grid for atomic number  79.
 Defaulting to unpruned grid for atomic number  79.
 Defaulting to unpruned grid for atomic number  79.
 Defaulting to unpruned grid for atomic number  79.
 Defaulting to unpruned grid for atomic number  79.
 Defaulting to unpruned grid for atomic number  79.
 Defaulting to unpruned grid for atomic number  79.
 Spurious integrated density or basis function:
 NE=   98 NElCor=    0 El error=8.48D-01 rel=1.19D-03 Tolerance=1.00D-03
 Shell     6     absolute error=8.75D-07              Tolerance=1.20D-02
 Shell     6       signed error=8.75D-07              Tolerance=1.00D-01
 E= -313.732552590837    
 -------------------------------------------------------------------------
 Computing the density matrix at cycle:                     1
 -------------------------------------------------------------------------
 *******************************
 *    Initializing Lead No.                      1
 *******************************
Searching optimum Emin such that DOS integrates to zero ...
GauLeg quadrature converged after  255 steps.
 EMin =   -10.0000000000000        39.9879007731289     
GauLeg quadrature converged after   63 steps.
 EMin =   -20.0000000000000       2.012760402860359E-003
Searching optimum EMax such that the DOS integrates to the total spectral weight in the unit cell ...
GauLeg quadrature converged after   63 steps.
 EMax =    30.0000000000000        71.9991834192341     
 EMin=  -30.0000000000000        EMax=   30.0000000000000     
 Searching Fermi energy...
 ChargeOffset   44.0000000000000     
 Bisec Method
GauLeg quadrature converged after   15 steps.
GauLeg quadrature converged after    3 steps.
GauLeg quadrature converged after   15 steps.
GauLeg quadrature converged after   15 steps.
GauLeg quadrature converged after   63 steps.
GauLeg quadrature converged after   31 steps.
GauLeg quadrature converged after   15 steps.
GauLeg quadrature converged after    7 steps.
GauLeg quadrature converged after   31 steps.
GauLeg quadrature converged after   31 steps.
GauLeg quadrature converged after    7 steps.
GauLeg quadrature converged after    7 steps.
EFermi in bulk electrode   1 =   -6.67969
 Lead Hamiltonian shifted by -EFermi =    6.67968750000000     
Printing DOS of Lead 1to file Lead1DOS.dat
 *******************************
 *    Initializing Lead No.                      2
 *******************************
Searching optimum Emin such that DOS integrates to zero ...
GauLeg quadrature converged after  255 steps.
 EMin =   -10.0000000000000        39.9879007731289     
GauLeg quadrature converged after   63 steps.
 EMin =   -20.0000000000000       2.012760402856362E-003
Searching optimum EMax such that the DOS integrates to the total spectral weight in the unit cell ...
GauLeg quadrature converged after   63 steps.
 EMax =    30.0000000000000        71.9991834192341     
 EMin=  -30.0000000000000        EMax=   30.0000000000000     
 Searching Fermi energy...
 ChargeOffset   44.0000000000000     
 Bisec Method
GauLeg quadrature converged after   15 steps.
GauLeg quadrature converged after    3 steps.
GauLeg quadrature converged after   15 steps.
GauLeg quadrature converged after   15 steps.
GauLeg quadrature converged after   63 steps.
GauLeg quadrature converged after   31 steps.
GauLeg quadrature converged after   15 steps.
GauLeg quadrature converged after    7 steps.
GauLeg quadrature converged after   31 steps.
GauLeg quadrature converged after   31 steps.
GauLeg quadrature converged after    7 steps.
GauLeg quadrature converged after    7 steps.
EFermi in bulk electrode   2 =   -6.67969
 Lead Hamiltonian shifted by -EFermi =    6.67968750000000     
Printing DOS of Lead 2to file Lead2DOS.dat
 -----------------------
 Estimated Energy Bounds
 -----------------------
 EMin=  -35.1459243964003     
 EMax=   36.6796875000000     
 -----------------------
  Total DOS Point Check 
 -----------------------
 Checking energy bounds [EMin, EMax] such that ...
 ...Total Integrated Spectral Weight (TISW)=  18
TotCharge/Gaussian quadrature gives     3  17.17080
TotCharge/Gaussian quadrature gives     7  17.92453
TotCharge/Gaussian quadrature gives    15  18.00555
TotCharge/Gaussian quadrature has converged after  15 steps. Error:   0.00589
TotCharge/Gaussian quadrature gives    17.99966
 EMin=        -35.146  EMax=         36.680  TISW=    17.99966 OK
 --------------------------------------------------
 MULLER method
 Integration of the density matrix on the complex plane has needed    8 points
 Integration of the density matrix on the complex plane has needed  128 points
 Integration of the density matrix on the complex plane has needed   16 points
 Integration of the density matrix on the complex plane has needed  128 points
 Integration of the density matrix on the complex plane has needed  128 points
 Integration of the density matrix on the complex plane has needed  128 points
 -----------------------------------------------
 Fermi energy=  -6.72258  +/-  0.00001
 
 Number of alpha electrons:    5.50000
 Number of beta electrons:     5.50000
 Total number of electrons:    11.00000
 -----------------------------------------------
 DIIS: error= 1.10D-02 at cycle   1 NSaved=   1.
 NSaved= 1 IEnMin= 1 EnMin= -313.732552590837     IErMin= 1 ErrMin= 1.10D-02
 ErrMax= 1.10D-02  0.00D+00 EMaxC= 1.00D-01 BMatC= 2.91D-03 BMatP= 2.91D-03
 IDIUse=3 WtCom= 8.90D-01 WtEn= 1.10D-01
 Coeff-Com:  0.100D+01
 Coeff-En:   0.100D+01
 Coeff:      0.100D+01
 RMSDP=8.09D-03 MaxDP=1.59D-01              OVMax= 0.00D+00

 Cycle   2  Pass 1  IDiag  1:
 Spurious integrated density or basis function:
 NE=   98 NElCor=    0 El error=8.48D-01 rel=1.19D-03 Tolerance=1.00D-03
 Shell     6     absolute error=8.75D-07              Tolerance=1.20D-02
 Shell     6       signed error=8.75D-07              Tolerance=1.00D-01
 E= -313.732677087865     Delta-E=       -0.000124497028 Rises=F Damp=F
 -------------------------------------------------------------------------
 Computing the density matrix at cycle:                     2
 -------------------------------------------------------------------------
 MULLER method
 Integration of the density matrix on the complex plane has needed    8 points
 Integration of the density matrix on the complex plane has needed  128 points
 Integration of the density matrix on the complex plane has needed   16 points
 Integration of the density matrix on the complex plane has needed  128 points
 Integration of the density matrix on the complex plane has needed  128 points
 -----------------------------------------------
 Fermi energy=  -6.72285  +/-  0.00007
 
 Number of alpha electrons:    5.50000
 Number of beta electrons:     5.50000
 Total number of electrons:    11.00000
 -----------------------------------------------
 RMSDP=7.66D-06 MaxDP=1.00D-04 DE=-1.24D-04 OVMax= 0.00D+00

 Cycle   3  Pass 1  IDiag  1:
 Spurious integrated density or basis function:
 NE=   98 NElCor=    0 El error=8.49D-01 rel=1.19D-03 Tolerance=1.00D-03
 Shell     6     absolute error=8.75D-07              Tolerance=1.20D-02
 Shell     6       signed error=8.75D-07              Tolerance=1.00D-01
 E= -313.732727938529     Delta-E=       -0.000050850664 Rises=F Damp=F
 -------------------------------------------------------------------------
 Computing the density matrix at cycle:                     3
 -------------------------------------------------------------------------
 MULLER method
 Integration of the density matrix on the complex plane has needed  128 points
 Integration of the density matrix on the complex plane has needed  128 points
 Integration of the density matrix on the complex plane has needed   16 points
 Integration of the density matrix on the complex plane has needed  128 points
 Integration of the density matrix on the complex plane has needed  128 points
 Integration of the density matrix on the complex plane has needed  128 points
 -----------------------------------------------
 Fermi energy=  -6.72337  +/-  0.00000
 
 Number of alpha electrons:    5.50000
 Number of beta electrons:     5.50000
 Total number of electrons:    11.00000
 -----------------------------------------------
 RMSDP=6.62D-06 MaxDP=8.66D-05 DE=-5.09D-05 OVMax= 0.00D+00

 Cycle   4  Pass 1  IDiag  1:
 Spurious integrated density or basis function:
 NE=   98 NElCor=    0 El error=8.49D-01 rel=1.19D-03 Tolerance=1.00D-03
 Shell     6     absolute error=8.75D-07              Tolerance=1.20D-02
 Shell     6       signed error=8.75D-07              Tolerance=1.00D-01
 E= -313.732735725226     Delta-E=       -0.000007786697 Rises=F Damp=F
 -------------------------------------------------------------------------
 Computing the density matrix at cycle:                     4
 -------------------------------------------------------------------------
 MULLER method
 Integration of the density matrix on the complex plane has needed  128 points
 Integration of the density matrix on the complex plane has needed  128 points
 Integration of the density matrix on the complex plane has needed  128 points
 Integration of the density matrix on the complex plane has needed  128 points
 Integration of the density matrix on the complex plane has needed  128 points
 Integration of the density matrix on the complex plane has needed  128 points
 -----------------------------------------------
 Fermi energy=  -6.72398  +/-  0.00000
 
 Number of alpha electrons:    5.50000
 Number of beta electrons:     5.50000
 Total number of electrons:    11.00000
 -----------------------------------------------
 RMSDP=5.85D-06 MaxDP=7.54D-05 DE=-7.79D-06 OVMax= 0.00D+00

 Cycle   5  Pass 1  IDiag  1:
 Spurious integrated density or basis function:
 NE=   98 NElCor=    0 El error=8.48D-01 rel=1.19D-03 Tolerance=1.00D-03
 Shell     6     absolute error=8.75D-07              Tolerance=1.20D-02
 Shell     6       signed error=8.75D-07              Tolerance=1.00D-01
 E= -313.732720054129     Delta-E=        0.000015671097 Rises=F Damp=F
 -------------------------------------------------------------------------
 Computing the density matrix at cycle:                     5
 -------------------------------------------------------------------------
 MULLER method
 Integration of the density matrix on the complex plane has needed  128 points
 Integration of the density matrix on the complex plane has needed  128 points
 Integration of the density matrix on the complex plane has needed  128 points
 Integration of the density matrix on the complex plane has needed  128 points
 Integration of the density matrix on the complex plane has needed  128 points
 Integration of the density matrix on the complex plane has needed  128 points
 -----------------------------------------------
 Fermi energy=  -6.72461  +/-  0.00000
 
 Number of alpha electrons:    5.50000
 Number of beta electrons:     5.50000
 Total number of electrons:    11.00000
 -----------------------------------------------
 Pulay kick .............
 RMSDP=9.04D-05 MaxDP=1.65D-03 DE= 1.57D-05 OVMax= 0.00D+00

 Cycle   6  Pass 1  IDiag  1:
 Spurious integrated density or basis function:
 NE=   98 NElCor=    0 El error=8.48D-01 rel=1.19D-03 Tolerance=1.00D-03
 Shell     6     absolute error=8.75D-07              Tolerance=1.20D-02
 Shell     6       signed error=8.75D-07              Tolerance=1.00D-01
 E= -313.732721291109     Delta-E=       -0.000001236980 Rises=F Damp=F
 -------------------------------------------------------------------------
 Computing the density matrix at cycle:                     6
 -------------------------------------------------------------------------
 MULLER method
 Integration of the density matrix on the complex plane has needed    8 points
 Integration of the density matrix on the complex plane has needed  128 points
 Integration of the density matrix on the complex plane has needed   16 points
 Integration of the density matrix on the complex plane has needed  128 points
 Integration of the density matrix on the complex plane has needed  128 points
 Integration of the density matrix on the complex plane has needed  128 points
 -----------------------------------------------
 Fermi energy=  -6.72777  +/-  0.00000
 
 Number of alpha electrons:    5.50000
 Number of beta electrons:     5.50000
 Total number of electrons:    11.00000
 -----------------------------------------------
 RMSDP=2.49D-07 MaxDP=6.16D-06 DE=-1.24D-06 OVMax= 0.00D+00

 SCF Done:  E(RS-VWN) =  -313.732721291     A.U. after    6 cycles
            NFock=  6  Conv=0.25D-06     -V/T= 2.3957
 KE= 2.247894370041D+02 PE=-1.481978656055D+03 EE= 5.921275593300D+02
 -------------------------------------------------------------------------
 Computing the density matrix at cycle:                  1000
 -------------------------------------------------------------------------
 MULLER method
 Integration of the density matrix on the complex plane has needed    8 points
 Integration of the density matrix on the complex plane has needed  128 points
 Integration of the density matrix on the complex plane has needed   16 points
 Integration of the density matrix on the complex plane has needed  128 points
 Integration of the density matrix on the complex plane has needed  128 points
 -----------------------------------------------
 Fermi energy=  -6.72777  +/-  0.00000
 
 Number of alpha electrons:    5.50000
 Number of beta electrons:     5.50000
 Total number of electrons:    11.00000
 -----------------------------------------------
 
 ****************************************** 
 *                                        * 
 *        ANT.G09 final analysis          * 
 *                                        * 
 ****************************************** 
 
 -------------------------------------
 ---  Self-consistent Hamiltonian  ---
 -------------------------------------
 ---------
 Left lead
 ---------
 Atom:   1   -7.635425
 Atom:   2   -7.501270
 Atom:   3   -7.505518
 Atom:   4   -7.523074
 ----------
 Right lead
 ----------
 Atom:   5   -7.511982
 Atom:   6   -7.523074
 Atom:   7   -7.505518
 Atom:   8   -7.501270
 Atom:   9   -7.635425
 
 --------------------------------
 --- Calculating Transmission ---
 ---  (and DOS if required)   ---
 --------------------------------
 
 *******************************
 *    Initializing Lead No.                      1
 *******************************
Searching optimum Emin such that DOS integrates to zero ...
GauLeg quadrature converged after   63 steps.
 EMin =   -23.3203125000000       1.465083967894465E-003
Searching optimum EMax such that the DOS integrates to the total spectral weight in the unit cell ...
GauLeg quadrature converged after   31 steps.
 EMax =    33.3203125000000        71.9971938248427     
 EMin=  -33.3203125000000        EMax=   33.3203125000000     
 Searching Fermi energy...
 ChargeOffset   44.0000000000000     
 Bisec Method
GauLeg quadrature converged after    7 steps.
GauLeg quadrature converged after    3 steps.
GauLeg quadrature converged after   15 steps.
GauLeg quadrature converged after   15 steps.
GauLeg quadrature converged after   31 steps.
GauLeg quadrature converged after   31 steps.
GauLeg quadrature converged after   15 steps.
GauLeg quadrature converged after    7 steps.
GauLeg quadrature converged after    7 steps.
GauLeg quadrature converged after    7 steps.
GauLeg quadrature converged after    7 steps.
GauLeg quadrature converged after    7 steps.
EFermi in bulk electrode   1 =   -6.63803
 Lead Hamiltonian shifted by -EFermi =    6.63803100585938     
Printing DOS of Lead 1to file Lead1DOS.dat
 *******************************
 *    Initializing Lead No.                      2
 *******************************
Searching optimum Emin such that DOS integrates to zero ...
GauLeg quadrature converged after   63 steps.
 EMin =   -23.3203125000000       1.465083967890468E-003
Searching optimum EMax such that the DOS integrates to the total spectral weight in the unit cell ...
GauLeg quadrature converged after   31 steps.
 EMax =    33.3203125000000        71.9971938248427     
 EMin=  -33.3203125000000        EMax=   33.3203125000000     
 Searching Fermi energy...
 ChargeOffset   44.0000000000000     
 Bisec Method
GauLeg quadrature converged after    7 steps.
GauLeg quadrature converged after    3 steps.
GauLeg quadrature converged after   15 steps.
GauLeg quadrature converged after   15 steps.
GauLeg quadrature converged after   31 steps.
GauLeg quadrature converged after   31 steps.
GauLeg quadrature converged after   15 steps.
GauLeg quadrature converged after    7 steps.
GauLeg quadrature converged after    7 steps.
GauLeg quadrature converged after    7 steps.
GauLeg quadrature converged after    7 steps.
GauLeg quadrature converged after    7 steps.
EFermi in bulk electrode   2 =   -6.63803
 Lead Hamiltonian shifted by -EFermi =    6.63803100585938     
Printing DOS of Lead 2to file Lead2DOS.dat
 MULLER method
[...]
  61        3D-1        0.00000   0.00000   0.00000   0.00000   0.00000
  62        3D+2        0.00000   0.00000   0.00000   0.00000   0.00000
  63        3D-2        0.00000   0.00000   0.00000   0.00000   0.00000
  64 8   Au 1S          0.00000   0.00000   0.00000   0.00000   0.00000
  65        2PX         0.00000   0.00000   0.00000   0.00000   0.00000
  66        2PY         0.00000   0.00000   0.00000   0.00000   0.00000
  67        2PZ        -0.00002   0.00000   0.00000   0.00000   0.00000
  68        3D 0        0.00000   0.00000   0.00000   0.00000   0.00000
  69        3D+1        0.00000   0.00000   0.00000   0.00000   0.00000
  70        3D-1        0.00000   0.00000   0.00000   0.00000   0.00000
  71        3D+2        0.00000   0.00000   0.00000   0.00000   0.00000
  72        3D-2        0.00000   0.00000   0.00000   0.00000   0.00000
  73 9   Au 1S          0.00000   0.00000   0.00000   0.00000   0.00000
  74        2PX         0.00000   0.00000   0.00000   0.00000   0.00000
  75        2PY         0.00000   0.00000   0.00000   0.00000   0.00000
  76        2PZ         0.00000   0.00000   0.00000   0.00000   0.00000
  77        3D 0        0.00000   0.00000   0.00000   0.00000   0.00000
  78        3D+1        0.00000   0.00000   0.00000   0.00000   0.00000
  79        3D-1        0.00000   0.00000   0.00000   0.00000   0.00000
  80        3D+2        0.00000   0.00000   0.00000   0.00000   0.00000
  81        3D-2        0.00000   0.00000   0.00000   0.00000   0.00000
                          46        47        48        49        50
  46 6   Au 1S          0.91433
  47        2PX         0.00000   0.00024
  48        2PY         0.00000   0.00000   0.00024
  49        2PZ         0.00000   0.00000   0.00000   0.10908
  50        3D 0        0.00000   0.00000   0.00000   0.00000   1.99634
  51        3D+1        0.00000   0.00000   0.00000   0.00000   0.00000
  52        3D-1        0.00000   0.00000   0.00000   0.00000   0.00000
  53        3D+2        0.00000   0.00000   0.00000   0.00000   0.00000
  54        3D-2        0.00000   0.00000   0.00000   0.00000   0.00000
  55 7   Au 1S          0.17903   0.00000   0.00000  -0.06017   0.00181
  56        2PX         0.00000  -0.00006   0.00000   0.00000   0.00000
  57        2PY         0.00000   0.00000  -0.00006   0.00000   0.00000
  58        2PZ        -0.06379   0.00000   0.00000  -0.01570  -0.00025
  59        3D 0        0.00179   0.00000   0.00000  -0.00035  -0.00354
  60        3D+1        0.00000  -0.00025   0.00000   0.00000   0.00000
  61        3D-1        0.00000   0.00000  -0.00025   0.00000   0.00000
  62        3D+2        0.00000   0.00000   0.00000   0.00000   0.00000
  63        3D-2        0.00000   0.00000   0.00000   0.00000   0.00000
  64 8   Au 1S         -0.00061   0.00000   0.00000  -0.01988  -0.00021
  65        2PX         0.00000   0.00000   0.00000   0.00000   0.00000
  66        2PY         0.00000   0.00000   0.00000   0.00000   0.00000
  67        2PZ        -0.01716   0.00000   0.00000  -0.02149  -0.00104
  68        3D 0       -0.00021   0.00000   0.00000  -0.00107   0.00000
  69        3D+1        0.00000   0.00004   0.00000   0.00000   0.00000
  70        3D-1        0.00000   0.00000   0.00004   0.00000   0.00000
  71        3D+2        0.00000   0.00000   0.00000   0.00000   0.00000
  72        3D-2        0.00000   0.00000   0.00000   0.00000   0.00000
  73 9   Au 1S         -0.00002   0.00000   0.00000  -0.00086   0.00000
  74        2PX         0.00000   0.00000   0.00000   0.00000   0.00000
  75        2PY         0.00000   0.00000   0.00000   0.00000   0.00000
  76        2PZ        -0.00072   0.00000   0.00000  -0.00230  -0.00002
  77        3D 0        0.00000   0.00000   0.00000  -0.00006   0.00000
  78        3D+1        0.00000   0.00000   0.00000   0.00000   0.00000
  79        3D-1        0.00000   0.00000   0.00000   0.00000   0.00000
  80        3D+2        0.00000   0.00000   0.00000   0.00000   0.00000
  81        3D-2        0.00000   0.00000   0.00000   0.00000   0.00000
                          51        52        53        54        55
  51        3D+1        2.00569
  52        3D-1        0.00000   2.00569
  53        3D+2        0.00000   0.00000   2.00005
  54        3D-2        0.00000   0.00000   0.00000   2.00005
  55 7   Au 1S          0.00000   0.00000   0.00000   0.00000   0.92059
  56        2PX        -0.00027   0.00000   0.00000   0.00000   0.00000
  57        2PY         0.00000  -0.00027   0.00000   0.00000   0.00000
  58        2PZ         0.00000   0.00000   0.00000   0.00000   0.00000
  59        3D 0        0.00000   0.00000   0.00000   0.00000   0.00000
  60        3D+1       -0.00248   0.00000   0.00000   0.00000   0.00000
  61        3D-1        0.00000  -0.00248   0.00000   0.00000   0.00000
  62        3D+2        0.00000   0.00000  -0.00011   0.00000   0.00000
  63        3D-2        0.00000   0.00000   0.00000  -0.00011   0.00000
  64 8   Au 1S          0.00000   0.00000   0.00000   0.00000   0.17488
  65        2PX         0.00004   0.00000   0.00000   0.00000   0.00000
  66        2PY         0.00000   0.00004   0.00000   0.00000   0.00000
  67        2PZ         0.00000   0.00000   0.00000   0.00000  -0.05461
  68        3D 0        0.00000   0.00000   0.00000   0.00000   0.00193
  69        3D+1        0.00000   0.00000   0.00000   0.00000   0.00000
  70        3D-1        0.00000   0.00000   0.00000   0.00000   0.00000
  71        3D+2        0.00000   0.00000   0.00000   0.00000   0.00000
  72        3D-2        0.00000   0.00000   0.00000   0.00000   0.00000
  73 9   Au 1S          0.00000   0.00000   0.00000   0.00000  -0.00094
  74        2PX         0.00000   0.00000   0.00000   0.00000   0.00000
  75        2PY         0.00000   0.00000   0.00000   0.00000   0.00000
  76        2PZ         0.00000   0.00000   0.00000   0.00000  -0.01498
  77        3D 0        0.00000   0.00000   0.00000   0.00000  -0.00022
  78        3D+1        0.00000   0.00000   0.00000   0.00000   0.00000
  79        3D-1        0.00000   0.00000   0.00000   0.00000   0.00000
  80        3D+2        0.00000   0.00000   0.00000   0.00000   0.00000
  81        3D-2        0.00000   0.00000   0.00000   0.00000   0.00000
                          56        57        58        59        60
  56        2PX         0.00026
  57        2PY         0.00000   0.00026
  58        2PZ         0.00000   0.00000   0.11249
  59        3D 0        0.00000   0.00000   0.00000   1.99629
  60        3D+1        0.00000   0.00000   0.00000   0.00000   2.00562
  61        3D-1        0.00000   0.00000   0.00000   0.00000   0.00000
  62        3D+2        0.00000   0.00000   0.00000   0.00000   0.00000
  63        3D-2        0.00000   0.00000   0.00000   0.00000   0.00000
  64 8   Au 1S          0.00000   0.00000  -0.08152   0.00189   0.00000
  65        2PX        -0.00009   0.00000   0.00000   0.00000  -0.00026
  66        2PY         0.00000  -0.00009   0.00000   0.00000   0.00000
  67        2PZ         0.00000   0.00000  -0.01518  -0.00030   0.00000
  68        3D 0        0.00000   0.00000  -0.00027  -0.00353   0.00000
  69        3D+1       -0.00025   0.00000   0.00000   0.00000  -0.00248
  70        3D-1        0.00000  -0.00025   0.00000   0.00000   0.00000
  71        3D+2        0.00000   0.00000   0.00000   0.00000   0.00000
  72        3D-2        0.00000   0.00000   0.00000   0.00000   0.00000
  73 9   Au 1S          0.00000   0.00000  -0.02182  -0.00021   0.00000
  74        2PX         0.00001   0.00000   0.00000   0.00000   0.00004
  75        2PY         0.00000   0.00001   0.00000   0.00000   0.00000
  76        2PZ         0.00000   0.00000  -0.02159  -0.00108   0.00000
  77        3D 0        0.00000   0.00000  -0.00194  -0.00001   0.00000
  78        3D+1        0.00006   0.00000   0.00000   0.00000   0.00000
  79        3D-1        0.00000   0.00006   0.00000   0.00000   0.00000
  80        3D+2        0.00000   0.00000   0.00000   0.00000   0.00000
  81        3D-2        0.00000   0.00000   0.00000   0.00000   0.00000
                          61        62        63        64        65
  61        3D-1        2.00562
  62        3D+2        0.00000   2.00005
  63        3D-2        0.00000   0.00000   2.00005
  64 8   Au 1S          0.00000   0.00000   0.00000   0.89501
  65        2PX         0.00000   0.00000   0.00000   0.00000   0.00031
  66        2PY        -0.00026   0.00000   0.00000   0.00000   0.00000
  67        2PZ         0.00000   0.00000   0.00000   0.00000   0.00000
  68        3D 0        0.00000   0.00000   0.00000   0.00000   0.00000
  69        3D+1        0.00000   0.00000   0.00000   0.00000   0.00000
  70        3D-1       -0.00248   0.00000   0.00000   0.00000   0.00000
  71        3D+2        0.00000  -0.00011   0.00000   0.00000   0.00000
  72        3D-2        0.00000   0.00000  -0.00011   0.00000   0.00000
  73 9   Au 1S          0.00000   0.00000   0.00000   0.17231   0.00000
  74        2PX         0.00000   0.00000   0.00000   0.00000  -0.00008
  75        2PY         0.00004   0.00000   0.00000   0.00000   0.00000
  76        2PZ         0.00000   0.00000   0.00000  -0.01818   0.00000
  77        3D 0        0.00000   0.00000   0.00000   0.00108   0.00000
  78        3D+1        0.00000   0.00000   0.00000   0.00000  -0.00089
  79        3D-1        0.00000   0.00000   0.00000   0.00000   0.00000
  80        3D+2        0.00000   0.00000   0.00000   0.00000   0.00000
  81        3D-2        0.00000   0.00000   0.00000   0.00000   0.00000
                          66        67        68        69        70
  66        2PY         0.00031
  67        2PZ         0.00000   0.10140
  68        3D 0        0.00000   0.00000   1.99558
  69        3D+1        0.00000   0.00000   0.00000   2.00552
  70        3D-1        0.00000   0.00000   0.00000   0.00000   2.00552
  71        3D+2        0.00000   0.00000   0.00000   0.00000   0.00000
  72        3D-2        0.00000   0.00000   0.00000   0.00000   0.00000
  73 9   Au 1S          0.00000  -0.08723   0.00216   0.00000   0.00000
  74        2PX         0.00000   0.00000   0.00000  -0.00021   0.00000
  75        2PY        -0.00008   0.00000   0.00000   0.00000  -0.00021
  76        2PZ         0.00000  -0.01364  -0.00045   0.00000   0.00000
  77        3D 0        0.00000  -0.00233  -0.00349   0.00000   0.00000
  78        3D+1        0.00000   0.00000   0.00000  -0.00249   0.00000
  79        3D-1       -0.00089   0.00000   0.00000   0.00000  -0.00249
  80        3D+2        0.00000   0.00000   0.00000   0.00000   0.00000
  81        3D-2        0.00000   0.00000   0.00000   0.00000   0.00000
                          71        72        73        74        75
  71        3D+2        2.00005
  72        3D-2        0.00000   2.00005
  73 9   Au 1S          0.00000   0.00000   0.90690
  74        2PX         0.00000   0.00000   0.00000   0.00026
  75        2PY         0.00000   0.00000   0.00000   0.00000   0.00026
  76        2PZ         0.00000   0.00000   0.00000   0.00000   0.00000
  77        3D 0        0.00000   0.00000   0.00000   0.00000   0.00000
  78        3D+1        0.00000   0.00000   0.00000   0.00000   0.00000
  79        3D-1        0.00000   0.00000   0.00000   0.00000   0.00000
  80        3D+2       -0.00011   0.00000   0.00000   0.00000   0.00000
  81        3D-2        0.00000  -0.00011   0.00000   0.00000   0.00000
                          76        77        78        79        80
  76        2PZ         0.08720
  77        3D 0        0.00000   1.99163
  78        3D+1        0.00000   0.00000   2.00691
  79        3D-1        0.00000   0.00000   0.00000   2.00691
  80        3D+2        0.00000   0.00000   0.00000   0.00000   2.00006
  81        3D-2        0.00000   0.00000   0.00000   0.00000   0.00000
                          81
  81        3D-2        2.00006
     Gross orbital populations:
                           1
   1 1   Au 1S          0.97028
   2        2PX         0.00001
   3        2PY         0.00001
   4        2PZ         0.01417
   5        3D 0        1.98468
   6        3D+1        2.00360
   7        3D-1        2.00360
   8        3D+2        1.99995
   9        3D-2        1.99995
  10 2   Au 1S          1.12393
  11        2PX        -0.00096
  12        2PY        -0.00096
  13        2PZ        -0.11460
  14        3D 0        1.99064
  15        3D+1        2.00013
  16        3D-1        2.00013
  17        3D+2        1.99982
  18        3D-2        1.99982
  19 3   Au 1S          1.12900
  20        2PX        -0.00029
  21        2PY        -0.00029
  22        2PZ        -0.15225
  23        3D 0        1.98962
  24        3D+1        2.00023
  25        3D-1        2.00023
  26        3D+2        1.99983
  27        3D-2        1.99983
  28 4   Au 1S          1.12179
  29        2PX        -0.00030
  30        2PY        -0.00030
  31        2PZ        -0.12743
  32        3D 0        1.98968
  33        3D+1        2.00027
  34        3D-1        2.00027
  35        3D+2        1.99983
  36        3D-2        1.99983
  37 5   Au 1S          1.12720
  38        2PX        -0.00035
  39        2PY        -0.00035
  40        2PZ        -0.11625
  41        3D 0        1.98963
  42        3D+1        2.00023
  43        3D-1        2.00023
  44        3D+2        1.99983
  45        3D-2        1.99983
  46 6   Au 1S          1.12179
  47        2PX        -0.00030
  48        2PY        -0.00030
  49        2PZ        -0.12743
  50        3D 0        1.98968
  51        3D+1        2.00027
  52        3D-1        2.00027
  53        3D+2        1.99983
  54        3D-2        1.99983
  55 7   Au 1S          1.12900
  56        2PX        -0.00029
  57        2PY        -0.00029
  58        2PZ        -0.15225
  59        3D 0        1.98962
  60        3D+1        2.00023
  61        3D-1        2.00023
  62        3D+2        1.99983
  63        3D-2        1.99983
  64 8   Au 1S          1.12393
  65        2PX        -0.00096
  66        2PY        -0.00096
  67        2PZ        -0.11460
  68        3D 0        1.99064
  69        3D+1        2.00013
  70        3D-1        2.00013
  71        3D+2        1.99982
  72        3D-2        1.99982
  73 9   Au 1S          0.97028
  74        2PX         0.00001
  75        2PY         0.00001
  76        2PZ         0.01417
  77        3D 0        1.98468
  78        3D+1        2.00360
  79        3D-1        2.00360
  80        3D+2        1.99995
  81        3D-2        1.99995
          Condensed to atoms (all electrons):
               1          2          3          4          5          6
     1  Au  11.000203   0.042667  -0.062565  -0.003986  -0.000076  -0.000001
     2  Au   0.042667  11.003742   0.016930  -0.061499  -0.003806  -0.000074
     3  Au  -0.062565   0.016930  11.041228   0.032475  -0.058309  -0.003775
     4  Au  -0.003986  -0.061499   0.032475  11.031703   0.044585  -0.055808
     5  Au  -0.000076  -0.003806  -0.058309   0.044585  11.035211   0.044585
     6  Au  -0.000001  -0.000074  -0.003775  -0.055808   0.044585  11.031703
     7  Au   0.000000  -0.000001  -0.000082  -0.003775  -0.058309   0.032475
     8  Au   0.000000   0.000000  -0.000001  -0.000074  -0.003806  -0.061499
     9  Au   0.000000   0.000000   0.000000  -0.000001  -0.000076  -0.003986
               7          8          9
     1  Au   0.000000   0.000000   0.000000
     2  Au  -0.000001   0.000000   0.000000
     3  Au  -0.000082  -0.000001   0.000000
     4  Au  -0.003775  -0.000074  -0.000001
     5  Au  -0.058309  -0.003806  -0.000076
     6  Au   0.032475  -0.061499  -0.003986
     7  Au  11.041228   0.016930  -0.062565
     8  Au   0.016930  11.003742   0.042667
     9  Au  -0.062565   0.042667  11.000203
 Mulliken charges:
               1
     1  Au   0.023757
     2  Au   0.002042
     3  Au   0.034098
     4  Au   0.016379
     5  Au   0.000000
     6  Au   0.016379
     7  Au   0.034098
     8  Au   0.002042
     9  Au   0.023757
 Sum of Mulliken charges =   0.15255
 Mulliken charges with hydrogens summed into heavy atoms:
               1
     1  Au   0.023757
     2  Au   0.002042
     3  Au   0.034098
     4  Au   0.016379
     5  Au   0.000000
     6  Au   0.016379
     7  Au   0.034098
     8  Au   0.002042
     9  Au   0.023757
 Electronic spatial extent (au):  <R**2>=          21506.9984
 Charge=              0.1526 electrons
 Dipole moment (field-independent basis, Debye):
    X=              0.0000    Y=              0.0000    Z=              0.0000  Tot=              0.0000
 Quadrupole moment (field-independent basis, Debye-Ang):
   XX=           -165.3744   YY=           -165.3744   ZZ=            -65.8655
   XY=              0.0000   XZ=              0.0000   YZ=              0.0000
 Traceless Quadrupole moment (field-independent basis, Debye-Ang):
   XX=            -33.1696   YY=            -33.1696   ZZ=             66.3393
   XY=              0.0000   XZ=              0.0000   YZ=              0.0000
 Octapole moment (field-independent basis, Debye-Ang**2):
  XXX=              0.0000  YYY=              0.0000  ZZZ=              0.0000  XYY=              0.0000
  XXY=              0.0000  XXZ=              0.0000  XZZ=              0.0000  YZZ=              0.0000
  YYZ=              0.0000  XYZ=              0.0000
 Hexadecapole moment (field-independent basis, Debye-Ang**3):
 XXXX=           -246.0951 YYYY=           -246.0951 ZZZZ=         -42734.8630 XXXY=              0.0000
 XXXZ=              0.0000 YYYX=              0.0000 YYYZ=              0.0000 ZZZX=              0.0000
 ZZZY=              0.0000 XXYY=            -82.0317 XXZZ=         -10046.7324 YYZZ=         -10046.7324
 XXYZ=              0.0000 YYXZ=              0.0000 ZZXY=              0.0000
 N-N= 3.513289384302D+02 E-N=-1.481978993994D+03  KE= 2.247894370041D+02
 Symmetry AG   KE= 5.023165384890D+01
 Symmetry B1G  KE= 2.482908632602D+01
 Symmetry B2G  KE= 2.490412651116D+01
 Symmetry B3G  KE= 2.490412651116D+01
 Symmetry AU   KE= 1.986300961200D+01
 Symmetry B1U  KE= 4.023248816437D+01
 Symmetry B2U  KE= 1.991247301527D+01
 Symmetry B3U  KE= 1.991247301526D+01
 Orbital energies and kinetic energies (alpha):
                                 1                 2
  45         (SGG)--O         -0.343213          2.572571
  46         (SGG)--O         -0.253608          0.218670
  47         (SGU)--O         -0.253427          0.228537
  48         (SGG)--O         -0.245717          0.197618
  49         (SGU)--O         -0.234663          0.174962
  50         (SGG)--V         -0.218337          0.161361
  51         (SGU)--V         -0.197101          0.176916
  52         (SGG)--V         -0.170636          0.222414
  53         (SGU)--V         -0.138140          0.284650
  54         (SGG)--V         -0.094483          0.360585
 Total kinetic energy from orbitals= 2.244344070815D+02
 No NMR shielding tensors so no spin-rotation constants.
 Leave Link  601 at Sat Jul  9 15:14:53 2022, MaxMem=   134217728 cpu:         1.0
 (Enter /home/palacios/Gaussian09/intel/v.D01/g09/l9999.exe)
 1\1\GINC-COMPUTE-1-0\SP\RSVWN\Gen\Au9(1+)\PALACIOS\09-Jul-2022\0\\#p l
 sda/gen pseudo=read pop=reg Scf=(conver=6,maxcycle=100,dsymm,nodamp)\\
 Au9-chain\\1,1\Au,0,0.,0.,0.\Au,0,0.,0.,3.\Au,0,0.,0.,6.\Au,0,0.,0.,9.
 \Au,0,0.,0.,12.\Au,0,0.,0.,15.\Au,0,0.,0.,18.\Au,0,0.,0.,21.\Au,0,0.,0
 .,24.\\Version=ES64L-G09RevD.01\State=1-SGG\HF=-313.7327213\RMSD=2.489
 e-07\Dipole=0.,0.,0.\Quadrupole=-24.6608116,-24.6608116,49.3216232,0.,
 0.,0.\PG=D*H [O(Au1),C*(Au1Au1Au1Au1.Au1Au1Au1Au1)]\\@


 NATURE GIVES TO EVERY TIME AND SEASON SOME BEAUTY OF ITS OWN.

                                                    --DICKENS
 Job cpu time:       0 days  0 hours 15 minutes 43.1 seconds.
 File lengths (MBytes):  RWF=      5 Int=      0 D2E=      0 Chk=      1 Scr=      1
 Normal termination of Gaussian 09 at Sat Jul  9 15:14:53 2022.
