 Entering Gaussian System, Link 0=g09
 Input=H10-chain.gjf
 Output=H10-chain.log
 Initial command:
 /home/palacios/gaussian/g09/l1.exe "/home/palacios/scratch/Gau-15125.inp" -scrdir="/home/palacios/scratch/"
 Entering Link 1 = /home/palacios/gaussian/g09/l1.exe PID=     15127.
  
 Copyright (c) 1988,1990,1992,1993,1995,1998,2003,2009,2013,
            Gaussian, Inc.  All Rights Reserved.
  
 This is part of the Gaussian(R) 09 program.  It is based on
 the Gaussian(R) 03 system (copyright 2003, Gaussian, Inc.),
 the Gaussian(R) 98 system (copyright 1998, Gaussian, Inc.),
 the Gaussian(R) 94 system (copyright 1995, Gaussian, Inc.),
 the Gaussian 92(TM) system (copyright 1992, Gaussian, Inc.),
 the Gaussian 90(TM) system (copyright 1990, Gaussian, Inc.),
 the Gaussian 88(TM) system (copyright 1988, Gaussian, Inc.),
 the Gaussian 86(TM) system (copyright 1986, Carnegie Mellon
 University), and the Gaussian 82(TM) system (copyright 1983,
 Carnegie Mellon University). Gaussian is a federally registered
 trademark of Gaussian, Inc.
  
 This software contains proprietary and confidential information,
 including trade secrets, belonging to Gaussian, Inc.
  
 This software is provided under written license and may be
 used, copied, transmitted, or stored only in accord with that
 written license.
  
 The following legend is applicable only to US Government
 contracts under FAR:
  
                    RESTRICTED RIGHTS LEGEND
  
 Use, reproduction and disclosure by the US Government is
 subject to restrictions as set forth in subparagraphs (a)
 and (c) of the Commercial Computer Software - Restricted
 Rights clause in FAR 52.227-19.
  
 Gaussian, Inc.
 340 Quinnipiac St., Bldg. 40, Wallingford CT 06492
  
  
 ---------------------------------------------------------------
 Warning -- This program may not be used in any manner that
 competes with the business of Gaussian, Inc. or will provide
 assistance to any competitor of Gaussian, Inc.  The licensee
 of this program is prohibited from giving any competitor of
 Gaussian, Inc. access to this program.  By using this program,
 the user acknowledges that Gaussian, Inc. is engaged in the
 business of creating and licensing software in the field of
 computational chemistry and represents and warrants to the
 licensee that it is not a competitor of Gaussian, Inc. and that
 it will not use this program in any manner prohibited above.
 ---------------------------------------------------------------
  

 Cite this work as:
 Gaussian 09, Revision D.01,
 M. J. Frisch, G. W. Trucks, H. B. Schlegel, G. E. Scuseria, 
 M. A. Robb, J. R. Cheeseman, G. Scalmani, V. Barone, B. Mennucci, 
 G. A. Petersson, H. Nakatsuji, M. Caricato, X. Li, H. P. Hratchian, 
 A. F. Izmaylov, J. Bloino, G. Zheng, J. L. Sonnenberg, M. Hada, 
 M. Ehara, K. Toyota, R. Fukuda, J. Hasegawa, M. Ishida, T. Nakajima, 
 Y. Honda, O. Kitao, H. Nakai, T. Vreven, J. A. Montgomery, Jr., 
 J. E. Peralta, F. Ogliaro, M. Bearpark, J. J. Heyd, E. Brothers, 
 K. N. Kudin, V. N. Staroverov, T. Keith, R. Kobayashi, J. Normand, 
 K. Raghavachari, A. Rendell, J. C. Burant, S. S. Iyengar, J. Tomasi, 
 M. Cossi, N. Rega, J. M. Millam, M. Klene, J. E. Knox, J. B. Cross, 
 V. Bakken, C. Adamo, J. Jaramillo, R. Gomperts, R. E. Stratmann, 
 O. Yazyev, A. J. Austin, R. Cammi, C. Pomelli, J. W. Ochterski, 
 R. L. Martin, K. Morokuma, V. G. Zakrzewski, G. A. Voth, 
 P. Salvador, J. J. Dannenberg, S. Dapprich, A. D. Daniels, 
 O. Farkas, J. B. Foresman, J. V. Ortiz, J. Cioslowski, 
 and D. J. Fox, Gaussian, Inc., Wallingford CT, 2013.
 
 ******************************************
 Gaussian 09:  ES64L-G09RevD.01 24-Apr-2013
                30-Jun-2022 
 ******************************************
 %mem=1gb
 %NProcShared=1
 Will use up to    1 processors via shared memory.
 %Subst L101 ../../bin
 %Subst L502 ../../bin
 --------------------------------------------------------
 #p lsda/sto-3g pop=reg Scf=(conver=6,maxcycle=100,dsymm)
 --------------------------------------------------------
 1/38=1/1;
 2/12=2,17=6,18=5,40=1/2;
 3/6=3,11=2,16=1,25=1,30=1,74=205/1,2,3;
 4//1;
 5/5=2,6=6,7=100,17=200,38=5/2;
 6/28=1/1;
 99/5=1,9=1/99;
 Leave Link    1 at Thu Jun 30 18:34:46 2022, MaxMem=   134217728 cpu:         0.0
 (Enter ../../bin/l101.exe)
 ---------
 H10-chain
 ---------
 Symbolic Z-matrix:
 Charge =  0 Multiplicity = 1
 H                     0.        0.        0. 
 H                     0.        0.        2. 
 H                     0.        0.        4. 
 H                     0.        0.        6. 
 H                     0.        0.        8. 
 H                     0.        0.        10. 
 H                     0.        0.        12. 
 H                     0.        0.        14. 
 H                     0.        0.        16. 
 H                     0.        0.        18. 
 
 NAtoms=     10 NQM=       10 NQMF=       0 NMMI=      0 NMMIF=      0
                NMic=       0 NMicF=      0.
                    Isotopes and Nuclear Properties:
 (Nuclear quadrupole moments (NQMom) in fm**2, nuclear magnetic moments (NMagM)
  in nuclear magnetons)

  Atom         1           2           3           4           5           6           7           8           9          10
 IAtWgt=           1           1           1           1           1           1           1           1           1           1
 AtmWgt=   1.0078250   1.0078250   1.0078250   1.0078250   1.0078250   1.0078250   1.0078250   1.0078250   1.0078250   1.0078250
 NucSpn=           1           1           1           1           1           1           1           1           1           1
 AtZEff=   0.0000000   0.0000000   0.0000000   0.0000000   0.0000000   0.0000000   0.0000000   0.0000000   0.0000000   0.0000000
 NQMom=    0.0000000   0.0000000   0.0000000   0.0000000   0.0000000   0.0000000   0.0000000   0.0000000   0.0000000   0.0000000
 NMagM=    2.7928460   2.7928460   2.7928460   2.7928460   2.7928460   2.7928460   2.7928460   2.7928460   2.7928460   2.7928460
 AtZNuc=   1.0000000   1.0000000   1.0000000   1.0000000   1.0000000   1.0000000   1.0000000   1.0000000   1.0000000   1.0000000
 Leave Link  101 at Thu Jun 30 18:34:46 2022, MaxMem=   134217728 cpu:         0.1
 (Enter /home/palacios/gaussian/g09/l202.exe)
                          Input orientation:                          
 ---------------------------------------------------------------------
 Center     Atomic      Atomic             Coordinates (Angstroms)
 Number     Number       Type             X           Y           Z
 ---------------------------------------------------------------------
      1          1           0        0.000000    0.000000    0.000000
      2          1           0        0.000000    0.000000    2.000000
      3          1           0        0.000000    0.000000    4.000000
      4          1           0        0.000000    0.000000    6.000000
      5          1           0        0.000000    0.000000    8.000000
      6          1           0        0.000000    0.000000   10.000000
      7          1           0        0.000000    0.000000   12.000000
      8          1           0        0.000000    0.000000   14.000000
      9          1           0        0.000000    0.000000   16.000000
     10          1           0        0.000000    0.000000   18.000000
 ---------------------------------------------------------------------
                    Distance matrix (angstroms):
                    1          2          3          4          5
     1  H    0.000000
     2  H    2.000000   0.000000
     3  H    4.000000   2.000000   0.000000
     4  H    6.000000   4.000000   2.000000   0.000000
     5  H    8.000000   6.000000   4.000000   2.000000   0.000000
     6  H   10.000000   8.000000   6.000000   4.000000   2.000000
     7  H   12.000000  10.000000   8.000000   6.000000   4.000000
     8  H   14.000000  12.000000  10.000000   8.000000   6.000000
     9  H   16.000000  14.000000  12.000000  10.000000   8.000000
    10  H   18.000000  16.000000  14.000000  12.000000  10.000000
                    6          7          8          9         10
     6  H    0.000000
     7  H    2.000000   0.000000
     8  H    4.000000   2.000000   0.000000
     9  H    6.000000   4.000000   2.000000   0.000000
    10  H    8.000000   6.000000   4.000000   2.000000   0.000000
 Stoichiometry    H10
 Framework group  D*H[C*(HHHHH.HHHHH)]
 Deg. of freedom     5
 Full point group                 D*H     NOp   8
 Largest Abelian subgroup         D2H     NOp   8
 Largest concise Abelian subgroup C2      NOp   2
                         Standard orientation:                         
 ---------------------------------------------------------------------
 Center     Atomic      Atomic             Coordinates (Angstroms)
 Number     Number       Type             X           Y           Z
 ---------------------------------------------------------------------
      1          1           0        0.000000    0.000000    9.000000
      2          1           0        0.000000    0.000000    7.000000
      3          1           0        0.000000    0.000000    5.000000
      4          1           0        0.000000    0.000000    3.000000
      5          1           0        0.000000    0.000000    1.000000
      6          1           0        0.000000    0.000000   -1.000000
      7          1           0        0.000000    0.000000   -3.000000
      8          1           0        0.000000    0.000000   -5.000000
      9          1           0        0.000000    0.000000   -7.000000
     10          1           0        0.000000    0.000000   -9.000000
 ---------------------------------------------------------------------
 Rotational constants (GHZ):      0.0000000      1.5195609      1.5195609
 Leave Link  202 at Thu Jun 30 18:34:46 2022, MaxMem=   134217728 cpu:         0.0
 (Enter /home/palacios/gaussian/g09/l301.exe)
 Standard basis: STO-3G (5D, 7F)
 Ernie: Thresh=  0.10000D-02 Tol=  0.10000D-05 Strict=F.
 There are     5 symmetry adapted cartesian basis functions of AG  symmetry.
 There are     0 symmetry adapted cartesian basis functions of B1G symmetry.
 There are     0 symmetry adapted cartesian basis functions of B2G symmetry.
 There are     0 symmetry adapted cartesian basis functions of B3G symmetry.
 There are     0 symmetry adapted cartesian basis functions of AU  symmetry.
 There are     5 symmetry adapted cartesian basis functions of B1U symmetry.
 There are     0 symmetry adapted cartesian basis functions of B2U symmetry.
 There are     0 symmetry adapted cartesian basis functions of B3U symmetry.
 There are     5 symmetry adapted basis functions of AG  symmetry.
 There are     0 symmetry adapted basis functions of B1G symmetry.
 There are     0 symmetry adapted basis functions of B2G symmetry.
 There are     0 symmetry adapted basis functions of B3G symmetry.
 There are     0 symmetry adapted basis functions of AU  symmetry.
 There are     5 symmetry adapted basis functions of B1U symmetry.
 There are     0 symmetry adapted basis functions of B2U symmetry.
 There are     0 symmetry adapted basis functions of B3U symmetry.
    10 basis functions,    30 primitive gaussians,    10 cartesian basis functions
     5 alpha electrons        5 beta electrons
       nuclear repulsion energy         5.1038301805 Hartrees.
 IExCor=  205 DFT=T Ex=S Corr=VWN ExCW=0 ScaHFX=  0.000000
 ScaDFX=  1.000000  1.000000  1.000000  1.000000 ScalE2=  1.000000  1.000000
 IRadAn=      0 IRanWt=     -1 IRanGd=            0 ICorTp=0 IEmpDi=  4
 NAtoms=   10 NActive=   10 NUniq=    5 SFac= 4.00D+00 NAtFMM=   60 NAOKFM=F Big=F
 Integral buffers will be    131072 words long.
 Raffenetti 2 integral format.
 Two-electron integral symmetry is turned on.
 Leave Link  301 at Thu Jun 30 18:34:46 2022, MaxMem=   134217728 cpu:         0.0
 (Enter /home/palacios/gaussian/g09/l302.exe)
 NPDir=0 NMtPBC=     1 NCelOv=     1 NCel=       1 NClECP=     1 NCelD=      1
         NCelK=      1 NCelE2=     1 NClLst=     1 CellRange=     0.0.
 One-electron integrals computed using PRISM.
 One-electron integral symmetry used in STVInt
 NBasis=    10 RedAO= T EigKep=  1.09D+00  NBF=     5     0     0     0     0     5     0     0
 NBsUse=    10 1.00D-06 EigRej= -1.00D+00 NBFU=     5     0     0     0     0     5     0     0
 Precomputing XC quadrature grid using
 IXCGrd= 4 IRadAn=           0 IRanWt=          -1 IRanGd=           0 AccXCQ= 0.00D+00.
 Generated NRdTot=       0 NPtTot=           0 NUsed=           0 NTot=          32
 NSgBfM=    10    10    10    10    10 MxSgAt=    10 MxSgA2=    10.
 Leave Link  302 at Thu Jun 30 18:34:46 2022, MaxMem=   134217728 cpu:         0.1
 (Enter /home/palacios/gaussian/g09/l303.exe)
 DipDrv:  MaxL=1.
 Leave Link  303 at Thu Jun 30 18:34:46 2022, MaxMem=   134217728 cpu:         0.0
 (Enter /home/palacios/gaussian/g09/l401.exe)
 ExpMin= 1.69D-01 ExpMax= 3.43D+00 ExpMxC= 3.43D+00 IAcc=1 IRadAn=         1 AccDes= 0.00D+00
 Harris functional with IExCor=  205 and IRadAn=       1 diagonalized for initial guess.
 HarFok:  IExCor=  205 AccDes= 0.00D+00 IRadAn=         1 IDoV= 1 UseB2=F ITyADJ=14
 ICtDFT=  3500011 ScaDFX=  1.000000  1.000000  1.000000  1.000000
 FoFCou: FMM=F IPFlag=           0 FMFlag=      100000 FMFlg1=           0
         NFxFlg=           0 DoJE=T BraDBF=F KetDBF=T FulRan=T
         wScrn=  0.000000 ICntrl=     500 IOpCl=  0 I1Cent=   200000004 NGrid=           0
         NMat0=    1 NMatS0=      1 NMatT0=    0 NMatD0=    1 NMtDS0=    0 NMtDT0=    0
 Petite list used in FoFCou.
 Harris En= -4.65392334811105    
 JPrj=0 DoOrth=F DoCkMO=F.
 Initial guess orbital symmetries:
       Occupied  (SGG) (SGU) (SGG) (SGU) (SGG)
       Virtual   (SGU) (SGG) (SGU) (SGG) (SGU)
 The electronic state of the initial guess is 1-SGG.
 Leave Link  401 at Thu Jun 30 18:34:46 2022, MaxMem=   134217728 cpu:         0.1
 (Enter ../../bin/l502.exe)
 Closed shell SCF:
 Using DIIS extrapolation, IDIIS=  1040.
 Integral symmetry usage will be decided dynamically.
 Keep J ints in memory in symmetry-blocked form, NReq=874209.
 IVT=       13749 IEndB=       13749 NGot=   134217728 MDV=   134202530
 LenX=   134202530 LenY=   134201648
 Requested convergence on RMS density matrix=1.00D-06 within 100 cycles.
 Requested convergence on MAX density matrix=1.00D-04.
 Requested convergence on             energy=1.00D-04.
 No special actions if energy rises.
 FoFCou: FMM=F IPFlag=           0 FMFlag=           0 FMFlg1=           0
         NFxFlg=           0 DoJE=F BraDBF=F KetDBF=F FulRan=T
         wScrn=  0.000000 ICntrl=     600 IOpCl=  0 I1Cent=           0 NGrid=           0
         NMat0=    1 NMatS0=     55 NMatT0=    0 NMatD0=    1 NMtDS0=    0 NMtDT0=    0
 Petite list used in FoFCou.
 Integral accuracy reduced to 1.0D-05 until final iterations.

 Cycle   1  Pass 0  IDiag  1:
 
  ****************************************************************** 
  ***                                                            *** 
  ***                      A l i c a n t e                       *** 
  ***                      N a n o                               *** 
  ***                      T r a n s p o r t                     *** 
  ***                      G 0 9                                 *** 
  ***                                                            *** 
  ****************************************************************** 
  ***                     Version: 2.5.2                         *** 
  ****************************************************************** 
  *  Copyright (c) by                                              * 
  *                                                                * 
  *  Juan Jose Palacios (1)                                        * 
  *  David Jacob (2)                                               * 
  *  Maria Soriano (1,5)                                           * 
  *  Angel J. Perez-Jimenez (3)                                    * 
  *  Emilio SanFabian (3)                                          * 
  *  Jose Antonio Antonio Verges (4)                               * 
  *  Enrique Louis (5)                                             * 
  *  Wynand Dednam (5)                                             * 
  *                                                                * 
  * (1) Departamento de Fisica de la Materia Condensada            * 
  *     Universidad Autonoma de Madrid                             * 
  *     28049 Madrid (SPAIN)                                       * 
  * (2) Theory Department                                          * 
  *     Max-Planck-Institute for Microstructure Physics            * 
  *     Halle, 06120 (GERMANY)                                     * 
  * (3) Departamento de Quimica Fisica                             * 
  *     Universidad de Alicante                                    * 
  *     03690 Alicante (SPAIN)                                     * 
  * (4) Insto. de Ciencias de Materiales de Madrid (ICMM)          * 
  *     Consejo Superior de Investigacion y Ciencia (CSIC)         * 
  *     28049 Madrid (SPAIN)                                       * 
  * (5) Departamento de Fisica Aplicada                            * 
  *     Universidad de Alicante                                    * 
  *     03690 Alicante (SPAIN)                                     * 
  *                                                                * 
  ****************************************************************** 
 
  ****************************************************************** 
  *                                                                * 
  *              Initializing ANT.G09 modules                      * 
  *                                                                * 
  ****************************************************************** 
 
 Scanning H10-chain.ant file for parameter specifications...
 Done.
 ****************************
 Basic calculation parameters
 ****************************
 ALPHA      =    2.9999999999999999E-002
 NPULAY     =                         4
 CHARGEACC  =    1.0000000000000000E-004  %
 FERMIACC   =    1.0000000000000000E-004  %
 PACC       =    9.9999999999999995E-007  %
 FULLACC    =   F
 MAX        =                        10
 SELFACC    =    9.9999999999999995E-007
 SMALL      =    0.1000000000000000     
 SMALLD     =    0.1000000000000000       A
 BIASVOLT   =     0.000000000000000       V
 QEXCESS    =     0.000000000000000      electrons
 ETA        =    1.0000000000000000E-003
 GLUE       =     1.000000000000000     
 FERMISTART =    -5.000000000000000       eV
 SOC        =   F
 SOCFAC     =     0.000000000000000     
 SOC_CFF_P  =     0.000000000000000       eV
 SOC_CFF_D  =     0.000000000000000       eV
 SOC_CFF_F  =     0.000000000000000       eV
 ROT        =   F
 THETA      =     0.000000000000000       degrees
 PHI        =     0.000000000000000       degrees
 SL         =    1.0000000000000000E-002
 DMIMAG     =   T
 FMIXING    =   F
 ******************
 1D lead parameters
 ******************
 DEVFILE                                                                                             
  = 
 device.dev                                                                                          
 LEAD1FILE                                                                                           
  = 
 lead1.elc                                                                                           
 LEAD2FILE                                                                                           
  = 
 lead2.elc                                                                                           
 DEVXYZ                                                                                              
  = 
 device.xyz                                                                                          
 LEAD1XYZ                                                                                            
  = 
 lead1.xyz                                                                                           
 LEAD2XYZ                                                                                            
  = 
 lead2.xyz                                                                                           
 ************************
 Bethe lattice parameters
 ************************
 TYPE1      = 1DLEAD    
 TYPE2      = 1DLEAD    
 BLPAR1     = Papacon             
 BLPAR2     = Papacon             
 NEMBED1    =                         1
 NEMBED2    =                         1
 NPC        =                         3
 NATOMEL1   = ? 
 NATOMEL2   = ? 
 NBULKLEAD1 =                         1
 NBULKLEAD2 = ? 
 OVERLAP    = System Overlap
 *************************
 Spin transport parameters
 *************************
 SWOFFSPL   =    1.0000000000000000E-003
 NSPINLOCK  =                         0
 NALPHA     =                        -1
 NBETA      =                        -1
 DU         =   F
 UD         =   F
 DD         =   F
 MRSTART    =                         0
 SPINDEL    =   F
 SPINEDIT   =                         0
 SOCFACATOM =                         0
 SPINROTATO =                         0
 SOCEDIT    =                         0
 ***********************
 Correlations parameters
 ***********************
 CORRBLOCKS =                         0
 PORTHO     =   F
 HYBFUNC    =   F
 DFT+U      =   F
 DIAGCORRBL =   F
 *****************
 Output parameters
 *****************
 HAMILTON   =   F
 MULLIKEN   =   F
 HTRANSM    =   F
 ESTEP      =    1.0000000000000000E-002
 DOSENERGY  =     0.000000000000000     
 EW1        =    -6.000000000000000     
 EW2        =     6.000000000000000     
 LDOS_BEG   =                         1
 LDOS_END   =                         0
 RTM_BEG    =                         1
 RTM_END    =                         0
 NCHANNELS  =                         0
 LEADDOS    =   T
 ANT1D      =   F
 BULK1DLEAD =   F
 PRTHATOM   =                         1
 -------------------
 Initializing device
 -------------------
 ----------------------------------------------------------
 Analyzing cluster for the connection of the  Bethe Lattice
 ----------------------------------------------------------
 
 Atom type of lead 1: H 
 Atom type of lead 2: H 
 
    1    1   1.    1    1    1
    2    1   1.    1    2    2
    3    1   1.    1    3    3
    4    1   1.    1    4    4
    5    1   1.    1    5    5
    6    1   1.    1    6    6
    7    1   1.    1    7    7
    8    1   1.    1    8    8
    9    1   1.    1    9    9
   10    1   1.    1   10   10
 
  Center of charge:
   0.000000   0.000000  -0.000000
 
                        5 nlead1
  Atoms in left electrode:                        5
   1  H    0.000000   0.000000  17.007535
   2  H    0.000000   0.000000  13.228083
   3  H    0.000000   0.000000   9.448631
   4  H    0.000000   0.000000   5.669178
   5  H    0.000000   0.000000   1.889726
 
  Atoms in molecule:                        0
 
  Atoms in right electrode:                        5
   6  H    0.000000   0.000000 -17.007535
   7  H    0.000000   0.000000 -13.228083
   8  H    0.000000   0.000000  -9.448631
   9  H    0.000000   0.000000  -5.669178
  10  H    0.000000   0.000000  -1.889726
 
 ---------------------------------------------------
  Details on device and contacting atoms -----------
 ---------------------------------------------------
 NEmbed(1) =                        1
 NEmbed(2) =                        1
 Number of electrons in neutral reduced device (NCDEl) =  
                        8
 First and last orbital in reduced device
 NCDAO1 =                         2
 NCDAO2 =                         9
 ---------------------------------------------------
 -------------------------------------------------------------------------------------------
 Starting calculation with density matrix from file  
 P.H10-chain.dat                                   
 -------------------------------------------------------------------------------------------
 Tr[P*S] of initial guess =    9.938394349454981     
 --------------------------------
 Spurious integrated density or basis function:
 NE=   10 NElCor=    0 El error=6.15D-02 rel=6.15D-03 Tolerance=1.00D-03
 Shell     2     absolute error=1.13D-05              Tolerance=1.20D-02
 Shell     2       signed error=1.13D-05              Tolerance=1.00D-01
 E= -4.59206408654174    
 -------------------------------------------------------------------------
 Computing the density matrix at cycle:                        1
 -------------------------------------------------------------------------
 *******************************
 *    Initializing Lead No.                         1
 *******************************
 
 *** Supercell on-site and coupling matrices ***
 
 H0 = 
   -0.3952E+01   -0.1876E+01   -0.5182E-01
   -0.1876E+01   -0.3952E+01   -0.1876E+01
   -0.5182E-01   -0.1876E+01   -0.3952E+01
 V1 = 
   -0.2025E-03   -0.5182E-01   -0.1876E+01
    0.0000E+00   -0.2025E-03   -0.5182E-01
    0.0000E+00    0.0000E+00   -0.2025E-03
 S0 = 
    0.1000E+01    0.1192E+00    0.1770E-02
    0.1192E+00    0.1000E+01    0.1192E+00
    0.1770E-02    0.1192E+00    0.1000E+01
 S1 = 
    0.3835E-05    0.1770E-02    0.1192E+00
    0.0000E+00    0.3835E-05    0.1770E-02
    0.0000E+00    0.0000E+00    0.3835E-05
 
 *** Extended Supercell Matrices ***
 
 HX = 
   -3.9516E+00   -1.8760E+00   -5.1824E-02   -2.0245E-04    0.0000E+00    0.0000E+00    0.0000E+00
   -1.8760E+00   -3.9516E+00   -1.8760E+00   -5.1824E-02   -2.0245E-04    0.0000E+00    0.0000E+00
   -5.1824E-02   -1.8760E+00   -3.9516E+00   -1.8760E+00   -5.1824E-02   -2.0245E-04    0.0000E+00
   -2.0245E-04   -5.1824E-02   -1.8760E+00   -3.9516E+00   -1.8760E+00   -5.1824E-02   -2.0245E-04
    0.0000E+00   -2.0245E-04   -5.1824E-02   -1.8760E+00   -3.9516E+00   -1.8760E+00   -5.1824E-02
    0.0000E+00    0.0000E+00   -2.0245E-04   -5.1824E-02   -1.8760E+00   -3.9516E+00   -1.8760E+00
    0.0000E+00    0.0000E+00    0.0000E+00   -2.0245E-04   -5.1824E-02   -1.8760E+00   -3.9516E+00
 SX = 
    1.0000E+00    1.1922E-01    1.7701E-03    3.8349E-06    0.0000E+00    0.0000E+00    0.0000E+00
    1.1922E-01    1.0000E+00    1.1922E-01    1.7701E-03    3.8349E-06    0.0000E+00    0.0000E+00
    1.7701E-03    1.1922E-01    1.0000E+00    1.1922E-01    1.7701E-03    3.8349E-06    0.0000E+00
    3.8349E-06    1.7701E-03    1.1922E-01    1.0000E+00    1.1922E-01    1.7701E-03    3.8349E-06
    0.0000E+00    3.8349E-06    1.7701E-03    1.1922E-01    1.0000E+00    1.1922E-01    1.7701E-03
    0.0000E+00    0.0000E+00    3.8349E-06    1.7701E-03    1.1922E-01    1.0000E+00    1.1922E-01
    0.0000E+00    0.0000E+00    0.0000E+00    3.8349E-06    1.7701E-03    1.1922E-01    1.0000E+00
Searching optimum Emin such that DOS integrates to zero
 EMin =     0.000000000000000         1.999763578948645     
 EMin =    -1.000000000000000         1.650405454001420     
 EMin =    -2.000000000000000         1.399263389248733     
 EMin =    -3.000000000000000         1.185703281494695     
 EMin =    -4.000000000000000        0.9416898662813299     
 EMin =    -5.000000000000000        0.7162708014948229     
 EMin =    -6.000000000000000        0.3348162108541111     
 EMin =    -7.000000000000000        3.2353215138803716E-004
 EMax =     0.000000000000000         1.999763578948645     
 EMin=   -7.000000000000000        EMax=    0.000000000000000     
 Searching Fermi energy...
 ChargeOffset    1.000000000000000     
 Bisec Method
Initial EFermi =   -3.88281
EFermi in the bulk electrodes=   -3.88281
 Lead Hamiltonian shifted by -EFermi =     3.882812500000000     
Printing DOS of Lead 1to file Lead1DOS.dat
 *******************************
 *    Initializing Lead No.                         2
 *******************************
 
 *** Supercell on-site and coupling matrices ***
 
 H0 = 
   -0.3952E+01   -0.1876E+01   -0.5182E-01
   -0.1876E+01   -0.3952E+01   -0.1876E+01
   -0.5182E-01   -0.1876E+01   -0.3952E+01
 V1 = 
   -0.2025E-03   -0.5182E-01   -0.1876E+01
    0.0000E+00   -0.2025E-03   -0.5182E-01
    0.0000E+00    0.0000E+00   -0.2025E-03
 S0 = 
    0.1000E+01    0.1192E+00    0.1770E-02
    0.1192E+00    0.1000E+01    0.1192E+00
    0.1770E-02    0.1192E+00    0.1000E+01
 S1 = 
    0.3835E-05    0.1770E-02    0.1192E+00
    0.0000E+00    0.3835E-05    0.1770E-02
    0.0000E+00    0.0000E+00    0.3835E-05
 
 *** Extended Supercell Matrices ***
 
 HX = 
   -3.9516E+00   -1.8760E+00   -5.1824E-02   -2.0245E-04    0.0000E+00    0.0000E+00    0.0000E+00
   -1.8760E+00   -3.9516E+00   -1.8760E+00   -5.1824E-02   -2.0245E-04    0.0000E+00    0.0000E+00
   -5.1824E-02   -1.8760E+00   -3.9516E+00   -1.8760E+00   -5.1824E-02   -2.0245E-04    0.0000E+00
   -2.0245E-04   -5.1824E-02   -1.8760E+00   -3.9516E+00   -1.8760E+00   -5.1824E-02   -2.0245E-04
    0.0000E+00   -2.0245E-04   -5.1824E-02   -1.8760E+00   -3.9516E+00   -1.8760E+00   -5.1824E-02
    0.0000E+00    0.0000E+00   -2.0245E-04   -5.1824E-02   -1.8760E+00   -3.9516E+00   -1.8760E+00
    0.0000E+00    0.0000E+00    0.0000E+00   -2.0245E-04   -5.1824E-02   -1.8760E+00   -3.9516E+00
 SX = 
    1.0000E+00    1.1922E-01    1.7701E-03    3.8349E-06    0.0000E+00    0.0000E+00    0.0000E+00
    1.1922E-01    1.0000E+00    1.1922E-01    1.7701E-03    3.8349E-06    0.0000E+00    0.0000E+00
    1.7701E-03    1.1922E-01    1.0000E+00    1.1922E-01    1.7701E-03    3.8349E-06    0.0000E+00
    3.8349E-06    1.7701E-03    1.1922E-01    1.0000E+00    1.1922E-01    1.7701E-03    3.8349E-06
    0.0000E+00    3.8349E-06    1.7701E-03    1.1922E-01    1.0000E+00    1.1922E-01    1.7701E-03
    0.0000E+00    0.0000E+00    3.8349E-06    1.7701E-03    1.1922E-01    1.0000E+00    1.1922E-01
    0.0000E+00    0.0000E+00    0.0000E+00    3.8349E-06    1.7701E-03    1.1922E-01    1.0000E+00
Searching optimum Emin such that DOS integrates to zero
 EMin =     0.000000000000000         1.999763578948645     
 EMin =    -1.000000000000000         1.650405454001420     
 EMin =    -2.000000000000000         1.399263389248733     
 EMin =    -3.000000000000000         1.185703281494695     
 EMin =    -4.000000000000000        0.9416898662813299     
 EMin =    -5.000000000000000        0.7162708014948229     
 EMin =    -6.000000000000000        0.3348162108541111     
 EMin =    -7.000000000000000        3.2353215138803716E-004
 EMax =     0.000000000000000         1.999763578948645     
 EMin=   -7.000000000000000        EMax=    0.000000000000000     
 Searching Fermi energy...
 ChargeOffset    1.000000000000000     
 Bisec Method
Initial EFermi =   -3.88281
EFermi in the bulk electrodes=   -3.88281
 Lead Hamiltonian shifted by -EFermi =     3.882812500000000     
Printing DOS of Lead 2to file Lead2DOS.dat
 -----------------------
 Estimated Energy Bounds
 -----------------------
 EMin=   -17.61807575979944     
 EMax=    17.61807575979944     
 Muller method
 Integration of density matrix along imaginary axis has needed  255 points.
 Integration of density matrix along imaginary axis has needed  511 points.
 Integration of density matrix along imaginary axis has needed  511 points.
  P0 =     3.697162912133817       -2.9073838702800003E-003
  P1 =     2.697162912133817         1.690337975797622     
  P2 =     4.697162912133817        -1.940264951285998     
 Integration of density matrix along imaginary axis has needed  255 points.
  P0 =     3.697162912133817       -2.9073838702800003E-003
  P1 =     2.697162912133817         1.690337975797622     
  P2 =     3.695561141252034       -9.4677210509708232E-005
 Integration of density matrix along imaginary axis has needed  255 points.
 -----------------------------------------------
 Fermi energy=  -3.69551  +/-  0.00005
 
 Number of alpha electrons:    4.00000
 Number of beta electrons:     4.00000
 -----------------------------------------------
 DIIS: error= 3.16D-03 at cycle   1 NSaved=   1.
 NSaved= 1 IEnMin= 1 EnMin= -4.59206408654174     IErMin= 1 ErrMin= 3.16D-03
 ErrMax= 3.16D-03  0.00D+00 EMaxC= 1.00D-01 BMatC= 1.27D-04 BMatP= 1.27D-04
 IDIUse=3 WtCom= 9.68D-01 WtEn= 3.16D-02
 Coeff-Com:  0.100D+01
 Coeff-En:   0.100D+01
 Coeff:      0.100D+01
 GapD=    2.000 DampG=2.000 DampE=1.000 DampFc=2.0000 IDamp=-1.
 RMSDP=4.57D-02 MaxDP=1.15D-01              OVMax= 0.00D+00

 Cycle   2  Pass 0  IDiag  1:
 Spurious integrated density or basis function:
 NE=   10 NElCor=    0 El error=6.11D-02 rel=6.11D-03 Tolerance=1.00D-03
 Shell     2     absolute error=1.13D-05              Tolerance=1.20D-02
 Shell     2       signed error=1.13D-05              Tolerance=1.00D-01
 E= -4.59220084597317     Delta-E=       -0.000136759431 Rises=F Damp=F
 -------------------------------------------------------------------------
 Computing the density matrix at cycle:                        2
 -------------------------------------------------------------------------
 -----------------------
 Estimated Energy Bounds
 -----------------------
 EMin=   -17.61636295292519     
 EMax=    17.61636295292519     
 Muller method
 Integration of density matrix along imaginary axis has needed  255 points.
 Integration of density matrix along imaginary axis has needed  511 points.
 Integration of density matrix along imaginary axis has needed  511 points.
  P0 =     3.695507221592021       -1.5034719693520771E-003
  P1 =     2.695507221592021         1.691652087417001     
  P2 =     4.695507221592020        -1.938830524659840     
 Integration of density matrix along imaginary axis has needed  255 points.
  P0 =     3.695507221592021       -1.5034719693520771E-003
  P1 =     2.695507221592021         1.691652087417001     
  P2 =     3.694678926354311       -4.9264328824349946E-005
 Integration of density matrix along imaginary axis has needed  255 points.
 -----------------------------------------------
 Fermi energy=  -3.69465  +/-  0.00003
 
 Number of alpha electrons:    4.00000
 Number of beta electrons:     4.00000
 -----------------------------------------------
 RMSDP=9.13D-05 MaxDP=2.68D-04 DE=-1.37D-04 OVMax= 0.00D+00

 Cycle   3  Pass 0  IDiag  1:
 Spurious integrated density or basis function:
 NE=   10 NElCor=    0 El error=6.07D-02 rel=6.07D-03 Tolerance=1.00D-03
 Shell     2     absolute error=1.13D-05              Tolerance=1.20D-02
 Shell     2       signed error=1.13D-05              Tolerance=1.00D-01
 E= -4.59232541772779     Delta-E=       -0.000124571755 Rises=F Damp=F
 -------------------------------------------------------------------------
 Computing the density matrix at cycle:                        3
 -------------------------------------------------------------------------
 -----------------------
 Estimated Energy Bounds
 -----------------------
 EMin=   -17.61495772971262     
 EMax=    17.61495772971262     
 Muller method
 Integration of density matrix along imaginary axis has needed  255 points.
 Integration of density matrix along imaginary axis has needed  511 points.
 Integration of density matrix along imaginary axis has needed  511 points.
  P0 =     3.694650865262473       -1.2503923594575639E-003
  P1 =     2.694650865262473         1.691767577531980     
  P2 =     4.694650865262473        -1.938781832728673     
 Integration of density matrix along imaginary axis has needed  255 points.
  P0 =     3.694650865262473       -1.2503923594575639E-003
  P1 =     2.694650865262473         1.691767577531980     
  P2 =     3.693962016148701       -4.1163931928878128E-005
 Integration of density matrix along imaginary axis has needed  255 points.
 -----------------------------------------------
 Fermi energy=  -3.69394  +/-  0.00002
 
 Number of alpha electrons:    4.00000
 Number of beta electrons:     4.00000
 -----------------------------------------------
 RMSDP=8.84D-05 MaxDP=2.60D-04 DE=-1.25D-04 OVMax= 0.00D+00

 Cycle   4  Pass 0  IDiag  1:
 Spurious integrated density or basis function:
 NE=   10 NElCor=    0 El error=6.05D-02 rel=6.05D-03 Tolerance=1.00D-03
 Shell     2     absolute error=1.13D-05              Tolerance=1.20D-02
 Shell     2       signed error=1.13D-05              Tolerance=1.00D-01
 E= -4.59243953472759     Delta-E=       -0.000114117000 Rises=F Damp=F
 -------------------------------------------------------------------------
 Computing the density matrix at cycle:                        4
 -------------------------------------------------------------------------
 -----------------------
 Estimated Energy Bounds
 -----------------------
 EMin=   -17.61380512024189     
 EMax=    17.61380512024189     
 Muller method
 Integration of density matrix along imaginary axis has needed  255 points.
 Integration of density matrix along imaginary axis has needed  511 points.
 Integration of density matrix along imaginary axis has needed  511 points.
  P0 =     3.693938566107308       -1.0393279951479428E-003
  P1 =     2.693938566107308         1.691861736669477     
  P2 =     4.693938566107308        -1.938742652127876     
 Integration of density matrix along imaginary axis has needed  255 points.
  P0 =     3.693938566107308       -1.0393279951479428E-003
  P1 =     2.693938566107308         1.691861736669477     
  P2 =     3.693366006825223       -3.4345825603132596E-005
 Integration of density matrix along imaginary axis has needed  255 points.
 -----------------------------------------------
 Fermi energy=  -3.69335  +/-  0.00002
 
 Number of alpha electrons:    4.00000
 Number of beta electrons:     4.00000
 -----------------------------------------------
 Pulay kick .............
 RMSDP=2.84D-03 MaxDP=8.40D-03 DE=-1.14D-04 OVMax= 0.00D+00

 Cycle   5  Pass 0  IDiag  1:
 Spurious integrated density or basis function:
 NE=   10 NElCor=    0 El error=5.89D-02 rel=5.89D-03 Tolerance=1.00D-03
 Shell     2     absolute error=1.13D-05              Tolerance=1.20D-02
 Shell     2       signed error=1.13D-05              Tolerance=1.00D-01
 E= -4.59500591547067     Delta-E=       -0.002566380743 Rises=F Damp=F
 -------------------------------------------------------------------------
 Computing the density matrix at cycle:                        5
 -------------------------------------------------------------------------
 -----------------------
 Estimated Energy Bounds
 -----------------------
 EMin=   -17.60905213509430     
 EMax=    17.60905213509430     
 Muller method
 Integration of density matrix along imaginary axis has needed   15 points.
 Integration of density matrix along imaginary axis has needed   31 points.
 Integration of density matrix along imaginary axis has needed   31 points.
  P0 =     3.693346438880953       -4.1071016572589158E-003
  P1 =     2.693346438880953         1.687749333095127     
  P2 =     4.693346438880953        -1.943389077160559     
 Integration of density matrix along imaginary axis has needed   15 points.
  P0 =     3.693346438880953       -4.1071016572589158E-003
  P1 =     2.693346438880953         1.687749333095127     
  P2 =     3.691083933589118       -1.3594362373137159E-004
 Integration of density matrix along imaginary axis has needed   15 points.
 -----------------------------------------------
 Fermi energy=  -3.69101  +/-  0.00008
 
 Number of alpha electrons:    4.00000
 Number of beta electrons:     4.00000
 -----------------------------------------------
 RMSDP=1.44D-06 MaxDP=4.28D-06 DE=-2.57D-03 OVMax= 0.00D+00

 Initial convergence to 1.0D-05 achieved.  Increase integral accuracy.
 Cycle   6  Pass 1  IDiag  1:
 Spurious integrated density or basis function:
 NE=   10 NElCor=    0 El error=5.90D-02 rel=5.90D-03 Tolerance=1.00D-03
 Shell     2     absolute error=1.21D-06              Tolerance=1.20D-02
 Shell     2       signed error=1.21D-06              Tolerance=1.00D-01
 E= -4.59499258474611     Delta-E=        0.000013330725 Rises=F Damp=F
 -------------------------------------------------------------------------
 Computing the density matrix at cycle:                        6
 -------------------------------------------------------------------------
 -----------------------
 Estimated Energy Bounds
 -----------------------
 EMin=   -17.60902123029674     
 EMax=    17.60902123029674     
 Muller method
 Integration of density matrix along imaginary axis has needed  511 points.
 Integration of density matrix along imaginary axis has needed 1023 points.
 Integration of density matrix along imaginary axis has needed 2047 points.
  P0 =     3.691006475275498        4.6444293994696295E-005
  P1 =     2.691006475275498         1.692132478175148     
  P2 =     4.691006475275499        -1.938627659631241     
 Integration of density matrix along imaginary axis has needed  511 points.
  P0 =     3.691006475275498        4.6444293994696295E-005
  P1 =     4.691006475275499        -1.938627659631241     
  P2 =     3.691032059016386        1.5605270320406817E-006
 Integration of density matrix along imaginary axis has needed  511 points.
 -----------------------------------------------
 Fermi energy=  -3.69103  +/-  0.00000
 
 Number of alpha electrons:    4.00000
 Number of beta electrons:     4.00000
 -----------------------------------------------
 RMSDP=1.44D-06 MaxDP=4.28D-06 DE= 1.33D-05 OVMax= 0.00D+00

 Cycle   7  Pass 1  IDiag  1:
 Spurious integrated density or basis function:
 NE=   10 NElCor=    0 El error=5.90D-02 rel=5.90D-03 Tolerance=1.00D-03
 Shell     2     absolute error=1.21D-06              Tolerance=1.20D-02
 Shell     2       signed error=1.21D-06              Tolerance=1.00D-01
 E= -4.59499196266581     Delta-E=        0.000000622080 Rises=F Damp=F
 -------------------------------------------------------------------------
 Computing the density matrix at cycle:                        7
 -------------------------------------------------------------------------
 -----------------------
 Estimated Energy Bounds
 -----------------------
 EMin=   -17.60905488250294     
 EMax=    17.60905488250294     
 Muller method
 Integration of density matrix along imaginary axis has needed  511 points.
 Integration of density matrix along imaginary axis has needed 1023 points.
 Integration of density matrix along imaginary axis has needed 2047 points.
  P0 =     3.691032948514102       -3.2992657583719165E-007
  P1 =     2.691032948514102         1.692092838898274     
  P2 =     4.691032948514103        -1.938683514661530     
 Integration of density matrix along imaginary axis has needed  511 points.
  P0 =     3.691032948514102       -3.2992657583719165E-007
  P1 =     2.691032948514102         1.692092838898274     
  P2 =     3.691032766775241       -1.1086499718260256E-008
 Integration of density matrix along imaginary axis has needed  511 points.
 -----------------------------------------------
 Fermi energy=  -3.69103  +/-  0.00000
 
 Number of alpha electrons:    4.00000
 Number of beta electrons:     4.00000
 -----------------------------------------------
 RMSDP=1.05D-06 MaxDP=2.26D-06 DE= 6.22D-07 OVMax= 0.00D+00

 Cycle   8  Pass 1  IDiag  1:
 Spurious integrated density or basis function:
 NE=   10 NElCor=    0 El error=5.90D-02 rel=5.90D-03 Tolerance=1.00D-03
 Shell     2     absolute error=1.21D-06              Tolerance=1.20D-02
 Shell     2       signed error=1.21D-06              Tolerance=1.00D-01
 E= -4.59499138119268     Delta-E=        0.000000581473 Rises=F Damp=F
 -------------------------------------------------------------------------
 Computing the density matrix at cycle:                        8
 -------------------------------------------------------------------------
 -----------------------
 Estimated Energy Bounds
 -----------------------
 EMin=   -17.60908258145517     
 EMax=    17.60908258145517     
 Muller method
 Integration of density matrix along imaginary axis has needed  511 points.
 Integration of density matrix along imaginary axis has needed 1023 points.
 Integration of density matrix along imaginary axis has needed 2047 points.
  P0 =     3.691032760455936       -2.2583025760525288E-007
  P1 =     2.691032760455936         1.692101496867329     
  P2 =     4.691032760455936        -1.938681130828750     
 Integration of density matrix along imaginary axis has needed  511 points.
  P0 =     3.691032760455936       -2.2583025760525288E-007
  P1 =     2.691032760455936         1.692101496867329     
  P2 =     3.691032636058371       -7.5892385709153132E-009
 Integration of density matrix along imaginary axis has needed  511 points.
 -----------------------------------------------
 Fermi energy=  -3.69103  +/-  0.00000
 
 Number of alpha electrons:    4.00000
 Number of beta electrons:     4.00000
 -----------------------------------------------
 RMSDP=1.00D-06 MaxDP=2.19D-06 DE= 5.81D-07 OVMax= 0.00D+00

 Cycle   9  Pass 1  IDiag  1:
 Spurious integrated density or basis function:
 NE=   10 NElCor=    0 El error=5.90D-02 rel=5.90D-03 Tolerance=1.00D-03
 Shell     2     absolute error=1.21D-06              Tolerance=1.20D-02
 Shell     2       signed error=1.21D-06              Tolerance=1.00D-01
 E= -4.59499083482487     Delta-E=        0.000000546368 Rises=F Damp=F
 -------------------------------------------------------------------------
 Computing the density matrix at cycle:                        9
 -------------------------------------------------------------------------
 -----------------------
 Estimated Energy Bounds
 -----------------------
 EMin=   -17.60910538759575     
 EMax=    17.60910538759575     
 Muller method
 Integration of density matrix along imaginary axis has needed  511 points.
 Integration of density matrix along imaginary axis has needed 1023 points.
 Integration of density matrix along imaginary axis has needed 2047 points.
  P0 =     3.691032631732498       -1.3638574625218780E-007
  P1 =     2.691032631732498         1.692108885355779     
  P2 =     4.691032631732498        -1.938679102239183     
 Integration of density matrix along imaginary axis has needed  511 points.
  P0 =     3.691032631732498       -1.3638574625218780E-007
  P1 =     2.691032631732498         1.692108885355779     
  P2 =     3.691032556605144       -4.5837289519568003E-009
 Integration of density matrix along imaginary axis has needed  511 points.
 -----------------------------------------------
 Fermi energy=  -3.69103  +/-  0.00000
 
 Number of alpha electrons:    4.00000
 Number of beta electrons:     4.00000
 -----------------------------------------------
 Pulay kick .............
 RMSDP=3.02D-05 MaxDP=6.92D-05 DE= 5.46D-07 OVMax= 0.00D+00

 Cycle  10  Pass 1  IDiag  1:
 Spurious integrated density or basis function:
 NE=   10 NElCor=    0 El error=5.90D-02 rel=5.90D-03 Tolerance=1.00D-03
 Shell     2     absolute error=1.21D-06              Tolerance=1.20D-02
 Shell     2       signed error=1.21D-06              Tolerance=1.00D-01
 E= -4.59497586001245     Delta-E=        0.000014974812 Rises=F Damp=F
 -------------------------------------------------------------------------
 Computing the density matrix at cycle:                       10
 -------------------------------------------------------------------------
 -----------------------
 Estimated Energy Bounds
 -----------------------
 EMin=   -17.60921341819208     
 EMax=    17.60921341819208     
 Muller method
 Integration of density matrix along imaginary axis has needed  255 points.
 Integration of density matrix along imaginary axis has needed  511 points.
 Integration of density matrix along imaginary axis has needed  511 points.
  P0 =     3.691032553992411        1.0554934805284688E-005
  P1 =     2.691032553992411         1.692166715455109     
  P2 =     4.691032553992411        -1.938649173631322     
 Integration of density matrix along imaginary axis has needed  255 points.
  P0 =     3.691032553992411        1.0554934805284688E-005
  P1 =     4.691032553992411        -1.938649173631322     
  P2 =     3.691038368074404        3.5486252336625057E-007
 Integration of density matrix along imaginary axis has needed  255 points.
 -----------------------------------------------
 Fermi energy=  -3.69104  +/-  0.00000
 
 Number of alpha electrons:    4.00000
 Number of beta electrons:     4.00000
 -----------------------------------------------
 RMSDP=2.41D-08 MaxDP=1.17D-07 DE= 1.50D-05 OVMax= 0.00D+00

 SCF Done:  E(RS-VWN) =  -4.59497586001     A.U. after   10 cycles
            NFock= 10  Conv=0.24D-07     -V/T= 1.6980
 KE= 6.582747416803D+00 PE=-2.185175128389D+01 EE= 5.570197826610D+00
 -------------------------------------------------------------------------
 Computing the density matrix at cycle:                     1000
 -------------------------------------------------------------------------
 -----------------------
 Estimated Energy Bounds
 -----------------------
 EMin=   -17.60921341819208     
 EMax=    17.60921341819208     
 Muller method
 Integration of density matrix along imaginary axis has needed  255 points.
 Integration of density matrix along imaginary axis has needed  511 points.
 Integration of density matrix along imaginary axis has needed  511 points.
  P0 =     3.691038570347333        1.2434497875801753E-013
  P1 =     2.691038570347333         1.692155508696946     
  P2 =     4.691038570347333        -1.938662378532840     
 Integration of density matrix along imaginary axis has needed  255 points.
  P0 =     3.691038570347333        1.2434497875801753E-013
  P1 =     4.691038570347333        -1.938662378532840     
  P2 =     3.691038570347402        5.3290705182007514E-015
 Integration of density matrix along imaginary axis has needed  255 points.
 -----------------------------------------------
 Fermi energy=  -3.69104  +/-  0.00000
 
 Number of alpha electrons:    4.00000
 Number of beta electrons:     4.00000
 -----------------------------------------------
 
 ****************************************** 
 *                                        * 
 *        ANT.G09 final analysis          * 
 *                                        * 
 ****************************************** 
 
 -------------------------------------
 ---  Self-consistent Hamiltonian  ---
 -------------------------------------
 ---------
 Left lead
 ---------
 Atom:   1   -3.930317
 Atom:   2   -3.819881
 Atom:   3   -3.776301
 Atom:   4   -3.782285
 Atom:   5   -3.777825
 ----------
 Right lead
 ----------
 Atom:   6   -3.777825
 Atom:   7   -3.782285
 Atom:   8   -3.776301
 Atom:   9   -3.819881
 Atom:  10   -3.930317
 
 --------------------------------
 --- Calculating Transmission ---
 ---  (and DOS if required)   ---
 --------------------------------
 
 Muller method
 Integration of density matrix along imaginary axis has needed  255 points.
 Integration of density matrix along imaginary axis has needed  511 points.
 Integration of density matrix along imaginary axis has needed  511 points.
  P0 =     3.691038570347405       -2.6645352591003757E-015
  P1 =     2.691038570347405         1.692155508696812     
  P2 =     4.691038570347405        -1.938662378532996     
 Integration of density matrix along imaginary axis has needed  255 points.
  P0 =     3.691038570347405       -2.6645352591003757E-015
  P1 =     2.691038570347405         1.692155508696812     
  P2 =     3.691038570347403         0.000000000000000     
 Integration of density matrix along imaginary axis has needed  255 points.
 -----------------------------------------------
 Fermi energy=  -3.69104  +/-  0.00000
 
 Number of alpha electrons:    4.00000
 Number of beta electrons:     4.00000
 -----------------------------------------------
 -------------------------------------
 ---  Mulliken population analysis ---
 -------------------------------------
 ----------------------
 Charges in electrode 1
 ----------------------
 Atom:   1  El.dens:  0.9705
 Atom:   2  El.dens:  1.0004
 Atom:   3  El.dens:  1.0010
 Atom:   4  El.dens:  0.9991
 Atom:   5  El.dens:  0.9994
 ---------------------------------------------------------
 Total num. of electrons in electrode 1:    4.970501727960357     
 ---------------------------------------------------------
 ----------------------------------------------------
 Total num. of electrons in molecule:    0.000000000000000     
 ----------------------------------------------------
 ----------------------
 Charges in electrode 2
 ----------------------
 Atom:   6  El.dens:  0.9994
 Atom:   7  El.dens:  0.9991
 Atom:   8  El.dens:  1.0010
 Atom:   9  El.dens:  1.0004
 Atom:  10  El.dens:  0.9705
 ---------------------------------------------------------
 Total num. of electrons in electrode 2:    4.970501727960357     
 ---------------------------------------------------------
  ----------------- End of ANT.G09 ------------------- 
 Leave Link  502 at Thu Jun 30 18:34:53 2022, MaxMem=   134217728 cpu:         6.9
 (Enter /home/palacios/gaussian/g09/l601.exe)
 Copying SCF densities to generalized density rwf, IOpCl= 0 IROHF=0.

 **********************************************************************

            Population analysis using the SCF density.

 **********************************************************************

 Orbital symmetries:
       Occupied  (SGG) (SGU) (SGG) (SGU) (SGG)
       Virtual   (SGU) (SGG) (SGU) (SGG) (SGU)
 The electronic state is 1-SGG.
 Alpha  occ. eigenvalues --   -0.27133  -0.26195  -0.24656  -0.22563  -0.19992
 Alpha virt. eigenvalues --   -0.17071  -0.13994  -0.11033  -0.08528  -0.06837
     Molecular Orbital Coefficients:
                           1         2         3         4         5
                       (SGG)--O  (SGU)--O  (SGG)--O  (SGU)--O  (SGG)--O
     Eigenvalues --    -0.27133  -0.26195  -0.24656  -0.22563  -0.19992
   1 1   H  1S          0.10138   0.19863   0.28691  -0.36017   0.41122
   2 2   H  1S          0.20414   0.35117   0.39676  -0.32129   0.13859
   3 3   H  1S          0.28972   0.38870   0.22534   0.10168  -0.37621
   4 4   H  1S          0.35108   0.29921  -0.10562   0.40322  -0.23500
   5 5   H  1S          0.38311   0.11193  -0.36180   0.22328   0.31598
   6 6   H  1S          0.38311  -0.11193  -0.36180  -0.22328   0.31598
   7 7   H  1S          0.35108  -0.29921  -0.10562  -0.40322  -0.23500
   8 8   H  1S          0.28972  -0.38870   0.22534  -0.10168  -0.37621
   9 9   H  1S          0.20414  -0.35117   0.39676   0.32129   0.13859
  10 10  H  1S          0.10138  -0.19863   0.28691   0.36017   0.41122
                           6         7         8         9        10
                       (SGU)--V  (SGG)--V  (SGU)--V  (SGG)--V  (SGU)--V
     Eigenvalues --    -0.17071  -0.13994  -0.11033  -0.08528  -0.06837
   1 1   H  1S          0.43241   0.41712  -0.36171   0.26760   0.14247
   2 2   H  1S         -0.10229  -0.32651   0.45535  -0.43563  -0.26521
   3 3   H  1S         -0.40108  -0.13928  -0.24073   0.46809   0.36678
   4 4   H  1S          0.22731   0.44527  -0.13662  -0.35522  -0.43932
   5 5   H  1S          0.33024  -0.24035   0.42162   0.13208   0.47708
   6 6   H  1S         -0.33024  -0.24035  -0.42162   0.13208  -0.47708
   7 7   H  1S         -0.22731   0.44527   0.13662  -0.35522   0.43932
   8 8   H  1S          0.40108  -0.13928   0.24073   0.46809  -0.36678
   9 9   H  1S          0.10229  -0.32651  -0.45535  -0.43563   0.26521
  10 10  H  1S         -0.43241   0.41712   0.36171   0.26760  -0.14247
     Density Matrix:
                           1         2         3         4         5
   1 1   H  1S          0.90611
   2 2   H  1S          0.54091   0.87220
   3 3   H  1S         -0.05744   0.53524   0.87326
   4 4   H  1S         -0.21065  -0.03706   0.53790   0.87121
   5 5   H  1S          0.01832  -0.20851  -0.04182   0.53604   0.87158
   6 6   H  1S          0.12785   0.00743  -0.21062  -0.03944   0.53771
   7 7   H  1S         -0.00907   0.12614   0.01003  -0.20884  -0.03944
   8 8   H  1S         -0.09163  -0.00319   0.12804   0.01003  -0.21062
   9 9   H  1S          0.00486  -0.08999  -0.00319   0.12614   0.00743
  10 10  H  1S          0.07109   0.00486  -0.09163  -0.00907   0.12785
                           6         7         8         9        10
   6 6   H  1S          0.87158
   7 7   H  1S          0.53604   0.87121
   8 8   H  1S         -0.04182   0.53790   0.87326
   9 9   H  1S         -0.20851  -0.03706   0.53524   0.87220
  10 10  H  1S          0.01832  -0.21065  -0.05744   0.54091   0.90611
    Full Mulliken population analysis:
                           1         2         3         4         5
   1 1   H  1S          0.90611
   2 2   H  1S          0.06449   0.87220
   3 3   H  1S         -0.00010   0.06381   0.87326
   4 4   H  1S         -0.00000  -0.00007   0.06413   0.87121
   5 5   H  1S          0.00000  -0.00000  -0.00007   0.06391   0.87158
   6 6   H  1S          0.00000   0.00000  -0.00000  -0.00007   0.06410
   7 7   H  1S          0.00000   0.00000   0.00000  -0.00000  -0.00007
   8 8   H  1S          0.00000   0.00000   0.00000   0.00000  -0.00000
   9 9   H  1S          0.00000   0.00000   0.00000   0.00000   0.00000
  10 10  H  1S          0.00000   0.00000   0.00000   0.00000   0.00000
                           6         7         8         9        10
   6 6   H  1S          0.87158
   7 7   H  1S          0.06391   0.87121
   8 8   H  1S         -0.00007   0.06413   0.87326
   9 9   H  1S         -0.00000  -0.00007   0.06381   0.87220
  10 10  H  1S          0.00000  -0.00000  -0.00010   0.06449   0.90611
     Gross orbital populations:
                           1
   1 1   H  1S          0.97049
   2 2   H  1S          1.00043
   3 3   H  1S          1.00102
   4 4   H  1S          0.99910
   5 5   H  1S          0.99944
   6 6   H  1S          0.99944
   7 7   H  1S          0.99910
   8 8   H  1S          1.00102
   9 9   H  1S          1.00043
  10 10  H  1S          0.97049
          Condensed to atoms (all electrons):
               1          2          3          4          5          6
     1  H    0.906111   0.064486  -0.000102  -0.000001   0.000000   0.000000
     2  H    0.064486   0.872204   0.063810  -0.000066  -0.000001   0.000000
     3  H   -0.000102   0.063810   0.873262   0.064127  -0.000074  -0.000001
     4  H   -0.000001  -0.000066   0.064127   0.871207   0.063905  -0.000070
     5  H    0.000000  -0.000001  -0.000074   0.063905   0.871579   0.064104
     6  H    0.000000   0.000000  -0.000001  -0.000070   0.064104   0.871579
     7  H    0.000000   0.000000   0.000000  -0.000001  -0.000070   0.063905
     8  H    0.000000   0.000000   0.000000   0.000000  -0.000001  -0.000074
     9  H    0.000000   0.000000   0.000000   0.000000   0.000000  -0.000001
    10  H    0.000000   0.000000   0.000000   0.000000   0.000000   0.000000
               7          8          9         10
     1  H    0.000000   0.000000   0.000000   0.000000
     2  H    0.000000   0.000000   0.000000   0.000000
     3  H    0.000000   0.000000   0.000000   0.000000
     4  H   -0.000001   0.000000   0.000000   0.000000
     5  H   -0.000070  -0.000001   0.000000   0.000000
     6  H    0.063905  -0.000074  -0.000001   0.000000
     7  H    0.871207   0.064127  -0.000066  -0.000001
     8  H    0.064127   0.873262   0.063810  -0.000102
     9  H   -0.000066   0.063810   0.872204   0.064486
    10  H   -0.000001  -0.000102   0.064486   0.906111
 Mulliken charges:
               1
     1  H    0.029506
     2  H   -0.000433
     3  H   -0.001022
     4  H    0.000898
     5  H    0.000557
     6  H    0.000557
     7  H    0.000898
     8  H   -0.001022
     9  H   -0.000433
    10  H    0.029506
 Sum of Mulliken charges =   0.05901
 Mulliken charges with hydrogens summed into heavy atoms:
               1
 Electronic spatial extent (au):  <R**2>=           1178.9486
 Charge=              0.0590 electrons
 Dipole moment (field-independent basis, Debye):
    X=              0.0000    Y=              0.0000    Z=             -0.0000  Tot=              0.0000
 Quadrupole moment (field-independent basis, Debye-Ang):
   XX=             -9.2744   YY=             -9.2744   ZZ=             17.8801
   XY=              0.0000   XZ=             -0.0000   YZ=              0.0000
 Traceless Quadrupole moment (field-independent basis, Debye-Ang):
   XX=             -9.0515   YY=             -9.0515   ZZ=             18.1030
   XY=              0.0000   XZ=             -0.0000   YZ=              0.0000
 Octapole moment (field-independent basis, Debye-Ang**2):
  XXX=             -0.0000  YYY=              0.0000  ZZZ=             -0.0000  XYY=             -0.0000
  XXY=              0.0000  XXZ=              0.0000  XZZ=              0.0000  YZZ=              0.0000
  YYZ=              0.0000  XYZ=              0.0000
 Hexadecapole moment (field-independent basis, Debye-Ang**3):
 XXXX=             -7.8301 YYYY=             -7.8301 ZZZZ=            778.7604 XXXY=              0.0000
 XXXZ=              0.0000 YYYX=              0.0000 YYYZ=              0.0000 ZZZX=             -0.0000
 ZZZY=              0.0000 XXYY=             -2.6100 XXZZ=           -301.7041 YYZZ=           -301.7041
 XXYZ=              0.0000 YYXZ=              0.0000 ZZXY=              0.0000
 N-N= 5.103830180468D+00 E-N=-2.185175190030D+01  KE= 6.582747416803D+00
 Symmetry AG   KE= 3.615162131711D+00
 Symmetry B1G  KE= 0.000000000000D+00
 Symmetry B2G  KE= 0.000000000000D+00
 Symmetry B3G  KE= 0.000000000000D+00
 Symmetry AU   KE= 0.000000000000D+00
 Symmetry B1U  KE= 2.967585285092D+00
 Symmetry B2U  KE= 0.000000000000D+00
 Symmetry B3U  KE= 0.000000000000D+00
 Orbital energies and kinetic energies (alpha):
                                 1                 2
   1         (SGG)--O         -0.271333          0.599614
   2         (SGU)--O         -0.261950          0.617164
   3         (SGG)--O         -0.246565          0.646194
   4         (SGU)--O         -0.225629          0.686206
   5         (SGG)--O         -0.199922          0.736124
   6         (SGU)--V         -0.170711          0.793870
   7         (SGG)--V         -0.139936          0.855836
   8         (SGU)--V         -0.110326          0.916493
   9         (SGG)--V         -0.085283          0.968536
  10         (SGU)--V         -0.068366          1.004055
 Total kinetic energy from orbitals= 6.570605977069D+00
 No NMR shielding tensors so no spin-rotation constants.
 Leave Link  601 at Thu Jun 30 18:34:53 2022, MaxMem=   134217728 cpu:         0.1
 (Enter /home/palacios/gaussian/g09/l9999.exe)
 1\1\GINC-JJPASUS\SP\RSVWN\STO-3G\H10\PALACIOS\30-Jun-2022\0\\#p lsda/s
 to-3g pop=reg Scf=(conver=6,maxcycle=100,dsymm)\\H10-chain\\0,1\H,0,0.
 ,0.,0.\H,0,0.,0.,2.\H,0,0.,0.,4.\H,0,0.,0.,6.\H,0,0.,0.,8.\H,0,0.,0.,1
 0.\H,0,0.,0.,12.\H,0,0.,0.,14.\H,0,0.,0.,16.\H,0,0.,0.,18.\\Version=ES
 64L-G09RevD.01\State=1-SGG\HF=-4.5949759\RMSD=2.405e-08\Dipole=0.,0.,0
 .\Quadrupole=-6.729563,-6.729563,13.459126,0.,0.,0.\PG=D*H [C*(H1H1H1H
 1H1.H1H1H1H1H1)]\\@


      SCIENCE SANS CONSCIENCE N'EST QUE RUINE DE L'AME.

                                                  -- RABELAIS
 Job cpu time:       0 days  0 hours  0 minutes  7.4 seconds.
 File lengths (MBytes):  RWF=      5 Int=      0 D2E=      0 Chk=      1 Scr=      1
 Normal termination of Gaussian 09 at Thu Jun 30 18:34:53 2022.
