 Entering Gaussian System, Link 0=g09
 Input=input_Electrodo_Au_3_benzene.gjf
 Output=input_Electrodo_Au_3_benzene.log
 Initial command:
 /home/palacios/Gaussian/g09/l1.exe "/home/palacios/scratch/Gau-7461.inp" -scrdir="/home/palacios/scratch/"
 Entering Link 1 = /home/palacios/Gaussian/g09/l1.exe PID=      7463.
  
 Copyright (c) 1988,1990,1992,1993,1995,1998,2003,2009,2013,
            Gaussian, Inc.  All Rights Reserved.
  
 This is part of the Gaussian(R) 09 program.  It is based on
 the Gaussian(R) 03 system (copyright 2003, Gaussian, Inc.),
 the Gaussian(R) 98 system (copyright 1998, Gaussian, Inc.),
 the Gaussian(R) 94 system (copyright 1995, Gaussian, Inc.),
 the Gaussian 92(TM) system (copyright 1992, Gaussian, Inc.),
 the Gaussian 90(TM) system (copyright 1990, Gaussian, Inc.),
 the Gaussian 88(TM) system (copyright 1988, Gaussian, Inc.),
 the Gaussian 86(TM) system (copyright 1986, Carnegie Mellon
 University), and the Gaussian 82(TM) system (copyright 1983,
 Carnegie Mellon University). Gaussian is a federally registered
 trademark of Gaussian, Inc.
  
 This software contains proprietary and confidential information,
 including trade secrets, belonging to Gaussian, Inc.
  
 This software is provided under written license and may be
 used, copied, transmitted, or stored only in accord with that
 written license.
  
 The following legend is applicable only to US Government
 contracts under FAR:
  
                    RESTRICTED RIGHTS LEGEND
  
 Use, reproduction and disclosure by the US Government is
 subject to restrictions as set forth in subparagraphs (a)
 and (c) of the Commercial Computer Software - Restricted
 Rights clause in FAR 52.227-19.
  
 Gaussian, Inc.
 340 Quinnipiac St., Bldg. 40, Wallingford CT 06492
  
  
 ---------------------------------------------------------------
 Warning -- This program may not be used in any manner that
 competes with the business of Gaussian, Inc. or will provide
 assistance to any competitor of Gaussian, Inc.  The licensee
 of this program is prohibited from giving any competitor of
 Gaussian, Inc. access to this program.  By using this program,
 the user acknowledges that Gaussian, Inc. is engaged in the
 business of creating and licensing software in the field of
 computational chemistry and represents and warrants to the
 licensee that it is not a competitor of Gaussian, Inc. and that
 it will not use this program in any manner prohibited above.
 ---------------------------------------------------------------
  

 Cite this work as:
 Gaussian 09, Revision D.01,
 M. J. Frisch, G. W. Trucks, H. B. Schlegel, G. E. Scuseria, 
 M. A. Robb, J. R. Cheeseman, G. Scalmani, V. Barone, B. Mennucci, 
 G. A. Petersson, H. Nakatsuji, M. Caricato, X. Li, H. P. Hratchian, 
 A. F. Izmaylov, J. Bloino, G. Zheng, J. L. Sonnenberg, M. Hada, 
 M. Ehara, K. Toyota, R. Fukuda, J. Hasegawa, M. Ishida, T. Nakajima, 
 Y. Honda, O. Kitao, H. Nakai, T. Vreven, J. A. Montgomery, Jr., 
 J. E. Peralta, F. Ogliaro, M. Bearpark, J. J. Heyd, E. Brothers, 
 K. N. Kudin, V. N. Staroverov, T. Keith, R. Kobayashi, J. Normand, 
 K. Raghavachari, A. Rendell, J. C. Burant, S. S. Iyengar, J. Tomasi, 
 M. Cossi, N. Rega, J. M. Millam, M. Klene, J. E. Knox, J. B. Cross, 
 V. Bakken, C. Adamo, J. Jaramillo, R. Gomperts, R. E. Stratmann, 
 O. Yazyev, A. J. Austin, R. Cammi, C. Pomelli, J. W. Ochterski, 
 R. L. Martin, K. Morokuma, V. G. Zakrzewski, G. A. Voth, 
 P. Salvador, J. J. Dannenberg, S. Dapprich, A. D. Daniels, 
 O. Farkas, J. B. Foresman, J. V. Ortiz, J. Cioslowski, 
 and D. J. Fox, Gaussian, Inc., Wallingford CT, 2013.
 
 ******************************************
 Gaussian 09:  EM64L-G09RevD.01 24-Apr-2013
                30-Apr-2021 
 ******************************************
 %mem=1gb
 %NProcShared=4
 Will use up to    4 processors via shared memory.
 %Subst L101 ../../bin
 %Subst L502 ../../bin
 ----------------------------------------------------------------------
 #p lsda/gen pseudo=read pop=min Scf=(conver=5,maxcycle=1000,dsymm,noda
 mp)
 ----------------------------------------------------------------------
 1/38=1/1;
 2/12=2,17=6,18=5,40=1/2;
 3/5=7,11=2,16=1,17=8,25=1,30=1,74=205/1,2,3;
 4//1;
 5/5=2,6=5,7=1000,17=200,18=-2,38=5/2;
 6/7=2,8=2,9=2,10=2,28=1/1;
 99/5=1,9=1/99;
 Leave Link    1 at Fri Apr 30 15:53:12 2021, MaxMem=   134217728 cpu:         0.0
 (Enter ../../bin/l101.exe)
 ----------------------------
 input_Electrodo_Au_3_benzene
 ----------------------------
 Symbolic Z-matrix:
 Charge =  0 Multiplicity = 1
 Au                   -2.9126    1.60531  -8.44795 
 Au                   -0.07144   1.60531  -8.44795 
 Au                   -1.49202  -0.8552   -8.44795 
 Au                    2.76972   1.60531  -8.44795 
 Au                    1.34914  -0.8552   -8.44795 
 Au                   -0.07144  -3.31571  -8.44795 
 Au                   -1.49202   0.78514  -6.12815 
 Au                    1.34914   0.78514  -6.12815 
 Au                   -0.07144  -1.67537  -6.12815 
 Au                   -0.07144  -0.03503  -4.8 
 C                    -1.13096  -0.67288  -2.38489 
 C                    -1.10376   0.72582  -2.38489 
 H                    -2.07866  -1.19578  -2.38489 
 H                    -2.03046   1.28512  -2.38489 
 C                     0.06674  -1.39588  -2.38489 
 C                     0.12114   1.40172  -2.38489 
 H                     0.04574  -2.47798  -2.38489 
 C                     1.29174  -0.72008  -2.38489 
 C                     1.31894   0.67872  -2.38489 
 H                     0.14224   2.48382  -2.38489 
 H                     2.21834  -1.27938  -2.38489 
 H                     2.26664   1.20152  -2.38489 
 Au                   -0.07144  -0.03503   0.4 
 Au                   -1.49202   0.78514   1.72815 
 Au                    1.34914   0.78514   1.72815 
 Au                   -0.07144  -1.67537   1.72815 
 Au                   -2.9126    1.60531   4.04795 
 Au                   -0.07144   1.60531   4.04795 
 Au                   -1.49202  -0.8552    4.04795 
 Au                    2.76972   1.60531   4.04795 
 Au                    1.34914  -0.8552    4.04795 
 Au                   -0.07144  -3.31571   4.04795 
 
 NAtoms=     32 NQM=       32 NQMF=       0 NMMI=      0 NMMIF=      0
                NMic=       0 NMicF=      0.
                    Isotopes and Nuclear Properties:
 (Nuclear quadrupole moments (NQMom) in fm**2, nuclear magnetic moments (NMagM)
  in nuclear magnetons)

  Atom         1           2           3           4           5           6           7           8           9          10
 IAtWgt=         197         197         197         197         197         197         197         197         197         197
 AtmWgt= 196.9666000 196.9666000 196.9666000 196.9666000 196.9666000 196.9666000 196.9666000 196.9666000 196.9666000 196.9666000
 NucSpn=           3           3           3           3           3           3           3           3           3           3
 AtZEff=   0.0000000   0.0000000   0.0000000   0.0000000   0.0000000   0.0000000   0.0000000   0.0000000   0.0000000   0.0000000
 NQMom=   54.7000000  54.7000000  54.7000000  54.7000000  54.7000000  54.7000000  54.7000000  54.7000000  54.7000000  54.7000000
 NMagM=    0.1481590   0.1481590   0.1481590   0.1481590   0.1481590   0.1481590   0.1481590   0.1481590   0.1481590   0.1481590
 AtZNuc=  79.0000000  79.0000000  79.0000000  79.0000000  79.0000000  79.0000000  79.0000000  79.0000000  79.0000000  79.0000000

  Atom        11          12          13          14          15          16          17          18          19          20
 IAtWgt=          12          12           1           1          12          12           1          12          12           1
 AtmWgt=  12.0000000  12.0000000   1.0078250   1.0078250  12.0000000  12.0000000   1.0078250  12.0000000  12.0000000   1.0078250
 NucSpn=           0           0           1           1           0           0           1           0           0           1
 AtZEff=   0.0000000   0.0000000   0.0000000   0.0000000   0.0000000   0.0000000   0.0000000   0.0000000   0.0000000   0.0000000
 NQMom=    0.0000000   0.0000000   0.0000000   0.0000000   0.0000000   0.0000000   0.0000000   0.0000000   0.0000000   0.0000000
 NMagM=    0.0000000   0.0000000   2.7928460   2.7928460   0.0000000   0.0000000   2.7928460   0.0000000   0.0000000   2.7928460
 AtZNuc=   6.0000000   6.0000000   1.0000000   1.0000000   6.0000000   6.0000000   1.0000000   6.0000000   6.0000000   1.0000000

  Atom        21          22          23          24          25          26          27          28          29          30
 IAtWgt=           1           1         197         197         197         197         197         197         197         197
 AtmWgt=   1.0078250   1.0078250 196.9666000 196.9666000 196.9666000 196.9666000 196.9666000 196.9666000 196.9666000 196.9666000
 NucSpn=           1           1           3           3           3           3           3           3           3           3
 AtZEff=   0.0000000   0.0000000   0.0000000   0.0000000   0.0000000   0.0000000   0.0000000   0.0000000   0.0000000   0.0000000
 NQMom=    0.0000000   0.0000000  54.7000000  54.7000000  54.7000000  54.7000000  54.7000000  54.7000000  54.7000000  54.7000000
 NMagM=    2.7928460   2.7928460   0.1481590   0.1481590   0.1481590   0.1481590   0.1481590   0.1481590   0.1481590   0.1481590
 AtZNuc=   1.0000000   1.0000000  79.0000000  79.0000000  79.0000000  79.0000000  79.0000000  79.0000000  79.0000000  79.0000000

  Atom        31          32
 IAtWgt=         197         197
 AtmWgt= 196.9666000 196.9666000
 NucSpn=           3           3
 AtZEff=   0.0000000   0.0000000
 NQMom=   54.7000000  54.7000000
 NMagM=    0.1481590   0.1481590
 AtZNuc=  79.0000000  79.0000000
 Leave Link  101 at Fri Apr 30 15:53:12 2021, MaxMem=   134217728 cpu:         0.1
 (Enter /home/palacios/Gaussian/g09/l202.exe)
                          Input orientation:                          
 ---------------------------------------------------------------------
 Center     Atomic      Atomic             Coordinates (Angstroms)
 Number     Number       Type             X           Y           Z
 ---------------------------------------------------------------------
      1         79           0       -2.912600    1.605310   -8.447950
      2         79           0       -0.071440    1.605310   -8.447950
      3         79           0       -1.492020   -0.855200   -8.447950
      4         79           0        2.769720    1.605310   -8.447950
      5         79           0        1.349140   -0.855200   -8.447950
      6         79           0       -0.071440   -3.315710   -8.447950
      7         79           0       -1.492020    0.785140   -6.128150
      8         79           0        1.349140    0.785140   -6.128150
      9         79           0       -0.071440   -1.675370   -6.128150
     10         79           0       -0.071440   -0.035030   -4.800000
     11          6           0       -1.130960   -0.672880   -2.384890
     12          6           0       -1.103760    0.725820   -2.384890
     13          1           0       -2.078660   -1.195780   -2.384890
     14          1           0       -2.030460    1.285120   -2.384890
     15          6           0        0.066740   -1.395880   -2.384890
     16          6           0        0.121140    1.401720   -2.384890
     17          1           0        0.045740   -2.477980   -2.384890
     18          6           0        1.291740   -0.720080   -2.384890
     19          6           0        1.318940    0.678720   -2.384890
     20          1           0        0.142240    2.483820   -2.384890
     21          1           0        2.218340   -1.279380   -2.384890
     22          1           0        2.266640    1.201520   -2.384890
     23         79           0       -0.071440   -0.035030    0.400000
     24         79           0       -1.492020    0.785140    1.728150
     25         79           0        1.349140    0.785140    1.728150
     26         79           0       -0.071440   -1.675370    1.728150
     27         79           0       -2.912600    1.605310    4.047950
     28         79           0       -0.071440    1.605310    4.047950
     29         79           0       -1.492020   -0.855200    4.047950
     30         79           0        2.769720    1.605310    4.047950
     31         79           0        1.349140   -0.855200    4.047950
     32         79           0       -0.071440   -3.315710    4.047950
 ---------------------------------------------------------------------
                    Distance matrix (angstroms):
                    1          2          3          4          5
     1  Au   0.000000
     2  Au   2.841160   0.000000
     3  Au   2.841154   2.841154   0.000000
     4  Au   5.682320   2.841160   4.921030   0.000000
     5  Au   4.921030   2.841154   2.841160   2.841154   0.000000
     6  Au   5.682308   4.921020   2.841154   5.682308   2.841154
     7  Au   2.841161   2.841161   2.841160   4.921034   4.018007
     8  Au   4.921034   2.841161   4.018007   2.841161   2.841160
     9  Au   4.921029   4.018001   2.841161   4.921029   2.841161
    10  Au   4.906164   3.999782   3.999783   4.906164   3.999783
    11  C    6.717521   6.563035   6.076537   7.560830   6.553231
    12  C    6.387965   6.212880   6.277823   7.248313   6.728822
    13  H    6.730695   6.973932   6.100888   8.253096   6.973271
    14  H    6.135258   6.379732   6.452254   7.739829   7.263839
    15  C    7.392179   6.766604   6.283531   7.285186   6.220738
    16  C    6.782752   6.069533   6.667583   6.619450   6.585011
    17  H    7.885793   7.310792   6.462106   7.800899   6.410379
    18  C    7.735930   6.635239   6.672951   6.659772   6.064837
    19  C    7.451523   6.289072   6.856756   6.302700   6.254160
    20  H    6.845767   6.130101   7.112001   6.666043   7.026120
    21  H    8.450366   7.094027   7.120913   6.736925   6.139718
    22  H    7.984251   6.510788   7.424171   6.097281   6.467813
    23  Au   9.436584   8.998718   8.998719   9.436584   8.998719
    24  Au  10.307460  10.307460  10.307460  11.062916  10.691862
    25  Au  11.062916  10.307460  10.691862  10.307460  10.307460
    26  Au  11.062914  10.691860  10.307460  11.062914  10.307460
    27  Au  12.495900  12.814824  12.814822  13.727209  13.429969
    28  Au  12.814824  12.495900  12.814822  12.814824  12.814822
    29  Au  12.814822  12.814822  12.495900  13.429969  12.814824
    30  Au  13.727209  12.814824  13.429969  12.495900  12.814822
    31  Au  13.429969  12.814822  12.814824  12.814822  12.495900
    32  Au  13.727205  13.429965  12.814822  13.727205  12.814822
                    6          7          8          9         10
     6  Au   0.000000
     7  Au   4.921025   0.000000
     8  Au   4.921025   2.841160   0.000000
     9  Au   2.841160   2.841154   2.841154   0.000000
    10  Au   4.906159   2.110618   2.110618   2.110615   0.000000
    11  C    6.698345   4.033383   4.721092   4.017408   2.713336
    12  C    7.359371   3.763809   4.475738   4.565457   2.734471
    13  H    6.729319   4.275533   5.448472   4.274451   3.347989
    14  H    7.859141   3.814694   5.067906   5.158901   3.378359
    15  C    6.361253   4.604191   4.518118   3.756222   2.775565
    16  C    7.684525   4.122433   3.987499   4.849491   2.816752
    17  H    6.121782   5.198524   5.134082   3.830132   3.437222
    18  C    6.734705   4.901735   4.034969   4.096686   2.856626
    19  C    7.392518   4.682394   3.744894   4.635396   2.876691
    20  H    8.392908   4.423609   4.284170   5.599689   3.496144
    21  H    6.793411   5.660478   4.362310   4.405893   3.553063
    22  H    7.914081   5.320986   3.876490   5.268312   3.581680
    23  Au   9.436582   6.731082   6.731082   6.731081   5.200000
    24  Au  11.062912   7.856300   8.354259   8.354257   6.731082
    25  Au  11.062912   8.354259   7.856300   8.354257   6.731082
    26  Au  10.307460   8.354257   8.354257   7.856300   6.731081
    27  Au  13.727205  10.307460  11.062916  11.062914   9.436584
    28  Au  13.429965  10.307460  10.307460  10.691860   8.998718
    29  Au  12.814822  10.307460  10.691862  10.307460   8.998719
    30  Au  13.727205  11.062916  10.307460  11.062914   9.436584
    31  Au  12.814822  10.691862  10.307460  10.307460   8.998719
    32  Au  12.495900  11.062912  11.062912  10.307460   9.436582
                   11         12         13         14         15
    11  C    0.000000
    12  C    1.398964   0.000000
    13  H    1.082386   2.154757   0.000000
    14  H    2.154731   1.082400   2.481368   0.000000
    15  C    1.399005   2.423155   2.154711   3.403823   0.000000
    16  C    2.423163   1.399007   3.403840   2.154757   2.798129
    17  H    2.154764   3.403775   2.481353   4.297852   1.082304
    18  C    2.423160   2.798043   3.403805   3.880443   1.399046
    19  C    2.798005   2.423158   3.880391   3.403851   2.423215
    20  H    3.403791   2.154781   4.297889   2.481432   3.880435
    21  H    3.403770   3.880358   4.297813   4.962757   2.154752
    22  H    3.880343   3.403805   4.962729   4.297913   3.403828
    23  Au   3.047138   3.065973   3.623794   3.651872   3.102679
    24  Au   4.378731   4.131751   4.602748   4.178157   4.909550
    25  Au   5.019344   4.789294   5.708849   5.346847   4.828923
    26  Au   4.364020   4.873243   4.601743   5.433172   4.124840
    27  Au   7.053072   6.739943   7.065620   6.500932   7.698379
    28  Au   6.906096   6.574239   7.297703   6.732140   7.099836
    29  Au   6.445544   6.635646   6.468506   6.800906   6.641046
    30  Au   7.860463   7.560343   8.528442   8.032788   7.595701
    31  Au   6.896779   7.063836   7.297071   7.575229   6.581665
    32  Au   7.034811   7.666882   7.064309   8.147811   6.714631
                   16         17         18         19         20
    16  C    0.000000
    17  H    3.880433   0.000000
    18  C    2.423291   2.154699   0.000000
    19  C    1.399090   3.403791   1.399064   0.000000
    20  H    1.082306   4.962738   3.403869   2.154764   0.000000
    21  H    3.403901   2.481297   1.082314   2.154780   4.297891
    22  H    2.154820   4.297804   2.154757   1.082338   2.481405
    23  Au   3.139578   3.706393   3.175400   3.193463   3.761100
    24  Au   4.460892   5.470809   5.189615   4.982963   4.740614
    25  Au   4.336502   5.409612   4.380192   4.114527   4.610772
    26  Au   5.140298   4.192256   4.437109   4.938825   5.853343
    27  Au   7.115227   8.173522   8.029031   7.755381   7.175323
    28  Au   6.438941   7.620264   6.974749   6.646289   6.496066
    29  Au   7.005527   6.810253   7.010635   7.185808   7.429757
    30  Au   6.959731   8.091647   6.998092   6.659186   7.004060
    31  Au   6.926984   6.761190   6.434515   6.613263   7.347591
    32  Au   7.979515   6.488216   7.069440   7.698705   8.663812
                   21         22         23         24         25
    21  H    0.000000
    22  H    2.481370   0.000000
    23  Au   3.814068   3.840740   0.000000
    24  Au   5.911524   5.587307   2.110618   0.000000
    25  Au   4.683466   4.234652   2.110618   2.841160   0.000000
    26  Au   4.724087   5.537166   2.110615   2.841154   2.841154
    27  Au   8.719485   8.268555   4.906164   2.841161   4.921034
    28  Au   7.412554   6.856464   3.999782   2.841161   2.841161
    29  Au   7.438288   7.729104   3.999783   2.841160   4.018007
    30  Au   7.071555   6.465104   4.906164   4.921034   2.841161
    31  Au   6.505142   6.815668   3.999783   4.018007   2.841160
    32  Au   7.125389   8.200818   4.906159   4.921025   4.921025
                   26         27         28         29         30
    26  Au   0.000000
    27  Au   4.921029   0.000000
    28  Au   4.018001   2.841160   0.000000
    29  Au   2.841161   2.841154   2.841154   0.000000
    30  Au   4.921029   5.682320   2.841160   4.921030   0.000000
    31  Au   2.841161   4.921030   2.841154   2.841160   2.841154
    32  Au   2.841160   5.682308   4.921020   2.841154   5.682308
                   31         32
    31  Au   0.000000
    32  Au   2.841154   0.000000
 Stoichiometry    C6H6Au20
 Framework group  C1[X(C6H6Au20)]
 Deg. of freedom    90
 Full point group                 C1      NOp   1
 Largest Abelian subgroup         C1      NOp   1
 Largest concise Abelian subgroup C1      NOp   1
                         Standard orientation:                         
 ---------------------------------------------------------------------
 Center     Atomic      Atomic             Coordinates (Angstroms)
 Number     Number       Type             X           Y           Z
 ---------------------------------------------------------------------
      1         79           0        6.243088   -2.416118   -2.224263
      2         79           0        6.243174    0.355673   -1.600272
      3         79           0        6.243114   -1.570613    0.488167
      4         79           0        6.243259    3.127464   -0.976280
      5         79           0        6.243199    1.201178    1.112159
      6         79           0        6.243140   -0.725109    3.200598
      7         79           0        3.923325   -1.210281   -1.112123
      8         79           0        3.923411    1.561510   -0.488131
      9         79           0        3.923351   -0.364776    1.600308
     10         79           0        2.595212   -0.004475    0.000018
     11          6           0        0.180066   -1.178139    0.389596
     12          6           0        0.180076   -0.844413   -0.968980
     13          1           0        0.180034   -2.217543    0.691590
     14          1           0        0.180052   -1.625650   -1.718151
     15          6           0        0.180097   -0.168471    1.357989
     16          6           0        0.180118    0.499025   -1.359358
     17          1           0        0.180089   -0.426615    2.409057
     18          6           0        0.180139    1.175042    0.967731
     19          6           0        0.180149    1.508791   -0.390943
     20          1           0        0.180126    0.757267   -2.410403
     21          1           0        0.180163    1.956182    1.716880
     22          1           0        0.180181    2.548172   -0.692839
     23         79           0       -2.604788   -0.004314    0.000017
     24         79           0       -3.932975   -1.210038   -1.112124
     25         79           0       -3.932889    1.561753   -0.488132
     26         79           0       -3.932949   -0.364533    1.600307
     27         79           0       -6.252812   -2.415731   -2.224265
     28         79           0       -6.252726    0.356060   -1.600273
     29         79           0       -6.252786   -1.570227    0.488166
     30         79           0       -6.252641    3.127851   -0.976281
     31         79           0       -6.252701    1.201564    1.112157
     32         79           0       -6.252760   -0.724722    3.200596
 ---------------------------------------------------------------------
 Rotational constants (GHZ):      0.0262402      0.0041155      0.0041155
 Leave Link  202 at Fri Apr 30 15:53:12 2021, MaxMem=   134217728 cpu:         0.0
 (Enter /home/palacios/Gaussian/g09/l301.exe)
 General basis read from cards:  (5D, 7F)
 Centers:       1      2      3      4      5      6      7      8      9     10
 Centers:      23     24     25     26     27     28     29     30     31     32
 S 3 1.00
     Exponent=  4.4090000000D-01 Coefficients= -7.4780000000D-01
     Exponent=  2.6260000000D-01 Coefficients=  8.1760000000D-01
     Exponent=  6.1700000000D-02 Coefficients=  8.1130000000D-01
 P 3 1.00
     Exponent=  6.6420000000D-01 Coefficients= -4.5900000000D-02
     Exponent=  1.0730000000D-01 Coefficients=  3.7780000000D-01
     Exponent=  3.1900000000D-02 Coefficients=  7.2330000000D-01
 D 4 1.00
     Exponent=  1.3517000000D+00 Coefficients=  4.7870000000D-01
     Exponent=  5.1490000000D-01 Coefficients=  4.5820000000D-01
     Exponent=  1.9940000000D-01 Coefficients=  2.2030000000D-01
     Exponent=  7.7600000000D-02 Coefficients=  4.1200000000D-02
 ****
 Centers:      11     12     15     16     18     19
 S 7 1.00
     Exponent=  4.2330000000D+03 Coefficients=  1.2200000000D-03
     Exponent=  6.3490000000D+02 Coefficients=  9.3420000000D-03
     Exponent=  1.4610000000D+02 Coefficients=  4.5452000000D-02
     Exponent=  4.2500000000D+01 Coefficients=  1.5465700000D-01
     Exponent=  1.4190000000D+01 Coefficients=  3.5886600000D-01
     Exponent=  5.1480000000D+00 Coefficients=  4.3863200000D-01
     Exponent=  1.9670000000D+00 Coefficients=  1.4591800000D-01
 S 2 1.00
     Exponent=  5.1480000000D+00 Coefficients= -1.6836700000D-01
     Exponent=  4.9620000000D-01 Coefficients=  1.0600910000D+00
 S 1 1.00
     Exponent=  1.5330000000D-01 Coefficients=  1.0000000000D+00
 P 4 1.00
     Exponent=  1.8160000000D+01 Coefficients=  1.8539000000D-02
     Exponent=  3.9860000000D+00 Coefficients=  1.1543600000D-01
     Exponent=  1.1430000000D+00 Coefficients=  3.8618800000D-01
     Exponent=  3.5940000000D-01 Coefficients=  6.4011400000D-01
 P 1 1.00
     Exponent=  1.1460000000D-01 Coefficients=  1.0000000000D+00
 ****
 Centers:      13     14     17     20     21     22
 S 3 1.00
     Exponent=  1.9238400000D+01 Coefficients=  3.2828000000D-02
     Exponent=  2.8987000000D+00 Coefficients=  2.3120400000D-01
     Exponent=  6.5350000000D-01 Coefficients=  8.1722600000D-01
 S 1 1.00
     Exponent=  1.7760000000D-01 Coefficients=  1.0000000000D+00
 ****
 ======================================================================================================
                                       Pseudopotential Parameters
 ======================================================================================================
  Center     Atomic      Valence      Angular      Power
  Number     Number     Electrons     Momentum     of R      Exponent        Coefficient   SO-Coeffient
 ======================================================================================================
    1         79           11
                                      G and up 
                                                     2        0.9657000       -0.98690200    0.00000000
                                                     2        2.2904000       -9.68630600    0.00000000
                                                     2        6.4383998      -32.57246399    0.00000000
                                                     2       16.3645992     -118.53087616    0.00000000
                                                     2       55.9892998     -286.25463867    0.00000000
                                                     1      171.1013947      -51.27423096    0.00000000
                                      S - G
                                                     2        1.2248000      -84.96929932    0.00000000
                                                     2        1.4336000      280.17764282    0.00000000
                                                     2        1.8929000     -354.64355469    0.00000000
                                                     2        2.6963000      334.33190918    0.00000000
                                                     2        3.9899001     -219.39260864    0.00000000
                                                     2        6.0054998      170.85874939    0.00000000
                                                     1       14.5825996       56.33872986    0.00000000
                                                     0       39.3106995        6.40929985    0.00000000
                                      P - G
                                                     2        0.9064000       -6.91190100    0.00000000
                                                     2        1.0311000       72.12546539    0.00000000
                                                     2        1.3287000     -114.97533417    0.00000000
                                                     2        1.9037000      123.61668396    0.00000000
                                                     2        2.8364000      -71.13571167    0.00000000
                                                     2        4.5883999       79.01660156    0.00000000
                                                     1       11.1981001       51.28700638    0.00000000
                                                     0       32.2957001        5.65198278    0.00000000
                                      D - G
                                                     2        0.2931000       -0.11365700    0.00000000
                                                     2        1.0301000       -2.40402508    0.00000000
                                                     2        2.0186000       62.58111572    0.00000000
                                                     2        3.4391999      255.44717407    0.00000000
                                                     2        5.1578999     -161.80647278    0.00000000
                                                     2        2.5149000     -175.77076721    0.00000000
                                                     1        8.0623999       63.62079239    0.00000000
                                                     0       41.0284996        6.75031996    0.00000000
                                      F - G
                                                     2        0.4335000      -47.60779953    0.00000000
                                                     2        0.5097000      176.31802368    0.00000000
                                                     2        0.5796000     -168.67689514    0.00000000
                                                     2        0.7711000       54.49244690    0.00000000
                                                     2        2.5934999       37.71539307    0.00000000
                                                     2        8.3907003      -24.13967514    0.00000000
                                                     1        6.9294000       49.16802216    0.00000000
                                                     0       22.2588997        4.75958586    0.00000000
    2         79           11
                                      G and up 
                                                     2        0.9657000       -0.98690200    0.00000000
                                                     2        2.2904000       -9.68630600    0.00000000
                                                     2        6.4383998      -32.57246399    0.00000000
                                                     2       16.3645992     -118.53087616    0.00000000
                                                     2       55.9892998     -286.25463867    0.00000000
                                                     1      171.1013947      -51.27423096    0.00000000
                                      S - G
                                                     2        1.2248000      -84.96929932    0.00000000
                                                     2        1.4336000      280.17764282    0.00000000
                                                     2        1.8929000     -354.64355469    0.00000000
                                                     2        2.6963000      334.33190918    0.00000000
                                                     2        3.9899001     -219.39260864    0.00000000
                                                     2        6.0054998      170.85874939    0.00000000
                                                     1       14.5825996       56.33872986    0.00000000
                                                     0       39.3106995        6.40929985    0.00000000
                                      P - G
                                                     2        0.9064000       -6.91190100    0.00000000
                                                     2        1.0311000       72.12546539    0.00000000
                                                     2        1.3287000     -114.97533417    0.00000000
                                                     2        1.9037000      123.61668396    0.00000000
                                                     2        2.8364000      -71.13571167    0.00000000
                                                     2        4.5883999       79.01660156    0.00000000
                                                     1       11.1981001       51.28700638    0.00000000
                                                     0       32.2957001        5.65198278    0.00000000
                                      D - G
                                                     2        0.2931000       -0.11365700    0.00000000
                                                     2        1.0301000       -2.40402508    0.00000000
                                                     2        2.0186000       62.58111572    0.00000000
                                                     2        3.4391999      255.44717407    0.00000000
                                                     2        5.1578999     -161.80647278    0.00000000
                                                     2        2.5149000     -175.77076721    0.00000000
                                                     1        8.0623999       63.62079239    0.00000000
                                                     0       41.0284996        6.75031996    0.00000000
                                      F - G
                                                     2        0.4335000      -47.60779953    0.00000000
                                                     2        0.5097000      176.31802368    0.00000000
                                                     2        0.5796000     -168.67689514    0.00000000
                                                     2        0.7711000       54.49244690    0.00000000
                                                     2        2.5934999       37.71539307    0.00000000
                                                     2        8.3907003      -24.13967514    0.00000000
                                                     1        6.9294000       49.16802216    0.00000000
                                                     0       22.2588997        4.75958586    0.00000000
    3         79           11
                                      G and up 
                                                     2        0.9657000       -0.98690200    0.00000000
                                                     2        2.2904000       -9.68630600    0.00000000
                                                     2        6.4383998      -32.57246399    0.00000000
                                                     2       16.3645992     -118.53087616    0.00000000
                                                     2       55.9892998     -286.25463867    0.00000000
                                                     1      171.1013947      -51.27423096    0.00000000
                                      S - G
                                                     2        1.2248000      -84.96929932    0.00000000
                                                     2        1.4336000      280.17764282    0.00000000
                                                     2        1.8929000     -354.64355469    0.00000000
                                                     2        2.6963000      334.33190918    0.00000000
                                                     2        3.9899001     -219.39260864    0.00000000
                                                     2        6.0054998      170.85874939    0.00000000
                                                     1       14.5825996       56.33872986    0.00000000
                                                     0       39.3106995        6.40929985    0.00000000
                                      P - G
                                                     2        0.9064000       -6.91190100    0.00000000
                                                     2        1.0311000       72.12546539    0.00000000
                                                     2        1.3287000     -114.97533417    0.00000000
                                                     2        1.9037000      123.61668396    0.00000000
                                                     2        2.8364000      -71.13571167    0.00000000
                                                     2        4.5883999       79.01660156    0.00000000
                                                     1       11.1981001       51.28700638    0.00000000
                                                     0       32.2957001        5.65198278    0.00000000
                                      D - G
                                                     2        0.2931000       -0.11365700    0.00000000
                                                     2        1.0301000       -2.40402508    0.00000000
                                                     2        2.0186000       62.58111572    0.00000000
                                                     2        3.4391999      255.44717407    0.00000000
                                                     2        5.1578999     -161.80647278    0.00000000
                                                     2        2.5149000     -175.77076721    0.00000000
                                                     1        8.0623999       63.62079239    0.00000000
                                                     0       41.0284996        6.75031996    0.00000000
                                      F - G
                                                     2        0.4335000      -47.60779953    0.00000000
                                                     2        0.5097000      176.31802368    0.00000000
                                                     2        0.5796000     -168.67689514    0.00000000
                                                     2        0.7711000       54.49244690    0.00000000
                                                     2        2.5934999       37.71539307    0.00000000
                                                     2        8.3907003      -24.13967514    0.00000000
                                                     1        6.9294000       49.16802216    0.00000000
                                                     0       22.2588997        4.75958586    0.00000000
    4         79           11
                                      G and up 
                                                     2        0.9657000       -0.98690200    0.00000000
                                                     2        2.2904000       -9.68630600    0.00000000
                                                     2        6.4383998      -32.57246399    0.00000000
                                                     2       16.3645992     -118.53087616    0.00000000
                                                     2       55.9892998     -286.25463867    0.00000000
                                                     1      171.1013947      -51.27423096    0.00000000
                                      S - G
                                                     2        1.2248000      -84.96929932    0.00000000
                                                     2        1.4336000      280.17764282    0.00000000
                                                     2        1.8929000     -354.64355469    0.00000000
                                                     2        2.6963000      334.33190918    0.00000000
                                                     2        3.9899001     -219.39260864    0.00000000
                                                     2        6.0054998      170.85874939    0.00000000
                                                     1       14.5825996       56.33872986    0.00000000
                                                     0       39.3106995        6.40929985    0.00000000
                                      P - G
                                                     2        0.9064000       -6.91190100    0.00000000
                                                     2        1.0311000       72.12546539    0.00000000
                                                     2        1.3287000     -114.97533417    0.00000000
                                                     2        1.9037000      123.61668396    0.00000000
                                                     2        2.8364000      -71.13571167    0.00000000
                                                     2        4.5883999       79.01660156    0.00000000
                                                     1       11.1981001       51.28700638    0.00000000
                                                     0       32.2957001        5.65198278    0.00000000
                                      D - G
                                                     2        0.2931000       -0.11365700    0.00000000
                                                     2        1.0301000       -2.40402508    0.00000000
                                                     2        2.0186000       62.58111572    0.00000000
                                                     2        3.4391999      255.44717407    0.00000000
                                                     2        5.1578999     -161.80647278    0.00000000
                                                     2        2.5149000     -175.77076721    0.00000000
                                                     1        8.0623999       63.62079239    0.00000000
                                                     0       41.0284996        6.75031996    0.00000000
                                      F - G
                                                     2        0.4335000      -47.60779953    0.00000000
                                                     2        0.5097000      176.31802368    0.00000000
                                                     2        0.5796000     -168.67689514    0.00000000
                                                     2        0.7711000       54.49244690    0.00000000
                                                     2        2.5934999       37.71539307    0.00000000
                                                     2        8.3907003      -24.13967514    0.00000000
                                                     1        6.9294000       49.16802216    0.00000000
                                                     0       22.2588997        4.75958586    0.00000000
    5         79           11
                                      G and up 
                                                     2        0.9657000       -0.98690200    0.00000000
                                                     2        2.2904000       -9.68630600    0.00000000
                                                     2        6.4383998      -32.57246399    0.00000000
                                                     2       16.3645992     -118.53087616    0.00000000
                                                     2       55.9892998     -286.25463867    0.00000000
                                                     1      171.1013947      -51.27423096    0.00000000
                                      S - G
                                                     2        1.2248000      -84.96929932    0.00000000
                                                     2        1.4336000      280.17764282    0.00000000
                                                     2        1.8929000     -354.64355469    0.00000000
                                                     2        2.6963000      334.33190918    0.00000000
                                                     2        3.9899001     -219.39260864    0.00000000
                                                     2        6.0054998      170.85874939    0.00000000
                                                     1       14.5825996       56.33872986    0.00000000
                                                     0       39.3106995        6.40929985    0.00000000
                                      P - G
                                                     2        0.9064000       -6.91190100    0.00000000
                                                     2        1.0311000       72.12546539    0.00000000
                                                     2        1.3287000     -114.97533417    0.00000000
                                                     2        1.9037000      123.61668396    0.00000000
                                                     2        2.8364000      -71.13571167    0.00000000
                                                     2        4.5883999       79.01660156    0.00000000
                                                     1       11.1981001       51.28700638    0.00000000
                                                     0       32.2957001        5.65198278    0.00000000
                                      D - G
                                                     2        0.2931000       -0.11365700    0.00000000
                                                     2        1.0301000       -2.40402508    0.00000000
                                                     2        2.0186000       62.58111572    0.00000000
                                                     2        3.4391999      255.44717407    0.00000000
                                                     2        5.1578999     -161.80647278    0.00000000
                                                     2        2.5149000     -175.77076721    0.00000000
                                                     1        8.0623999       63.62079239    0.00000000
                                                     0       41.0284996        6.75031996    0.00000000
                                      F - G
                                                     2        0.4335000      -47.60779953    0.00000000
                                                     2        0.5097000      176.31802368    0.00000000
                                                     2        0.5796000     -168.67689514    0.00000000
                                                     2        0.7711000       54.49244690    0.00000000
                                                     2        2.5934999       37.71539307    0.00000000
                                                     2        8.3907003      -24.13967514    0.00000000
                                                     1        6.9294000       49.16802216    0.00000000
                                                     0       22.2588997        4.75958586    0.00000000
    6         79           11
                                      G and up 
                                                     2        0.9657000       -0.98690200    0.00000000
                                                     2        2.2904000       -9.68630600    0.00000000
                                                     2        6.4383998      -32.57246399    0.00000000
                                                     2       16.3645992     -118.53087616    0.00000000
                                                     2       55.9892998     -286.25463867    0.00000000
                                                     1      171.1013947      -51.27423096    0.00000000
                                      S - G
                                                     2        1.2248000      -84.96929932    0.00000000
                                                     2        1.4336000      280.17764282    0.00000000
                                                     2        1.8929000     -354.64355469    0.00000000
                                                     2        2.6963000      334.33190918    0.00000000
                                                     2        3.9899001     -219.39260864    0.00000000
                                                     2        6.0054998      170.85874939    0.00000000
                                                     1       14.5825996       56.33872986    0.00000000
                                                     0       39.3106995        6.40929985    0.00000000
                                      P - G
                                                     2        0.9064000       -6.91190100    0.00000000
                                                     2        1.0311000       72.12546539    0.00000000
                                                     2        1.3287000     -114.97533417    0.00000000
                                                     2        1.9037000      123.61668396    0.00000000
                                                     2        2.8364000      -71.13571167    0.00000000
                                                     2        4.5883999       79.01660156    0.00000000
                                                     1       11.1981001       51.28700638    0.00000000
                                                     0       32.2957001        5.65198278    0.00000000
                                      D - G
                                                     2        0.2931000       -0.11365700    0.00000000
                                                     2        1.0301000       -2.40402508    0.00000000
                                                     2        2.0186000       62.58111572    0.00000000
                                                     2        3.4391999      255.44717407    0.00000000
                                                     2        5.1578999     -161.80647278    0.00000000
                                                     2        2.5149000     -175.77076721    0.00000000
                                                     1        8.0623999       63.62079239    0.00000000
                                                     0       41.0284996        6.75031996    0.00000000
                                      F - G
                                                     2        0.4335000      -47.60779953    0.00000000
                                                     2        0.5097000      176.31802368    0.00000000
                                                     2        0.5796000     -168.67689514    0.00000000
                                                     2        0.7711000       54.49244690    0.00000000
                                                     2        2.5934999       37.71539307    0.00000000
                                                     2        8.3907003      -24.13967514    0.00000000
                                                     1        6.9294000       49.16802216    0.00000000
                                                     0       22.2588997        4.75958586    0.00000000
    7         79           11
                                      G and up 
                                                     2        0.9657000       -0.98690200    0.00000000
                                                     2        2.2904000       -9.68630600    0.00000000
                                                     2        6.4383998      -32.57246399    0.00000000
                                                     2       16.3645992     -118.53087616    0.00000000
                                                     2       55.9892998     -286.25463867    0.00000000
                                                     1      171.1013947      -51.27423096    0.00000000
                                      S - G
                                                     2        1.2248000      -84.96929932    0.00000000
                                                     2        1.4336000      280.17764282    0.00000000
                                                     2        1.8929000     -354.64355469    0.00000000
                                                     2        2.6963000      334.33190918    0.00000000
                                                     2        3.9899001     -219.39260864    0.00000000
                                                     2        6.0054998      170.85874939    0.00000000
                                                     1       14.5825996       56.33872986    0.00000000
                                                     0       39.3106995        6.40929985    0.00000000
                                      P - G
                                                     2        0.9064000       -6.91190100    0.00000000
                                                     2        1.0311000       72.12546539    0.00000000
                                                     2        1.3287000     -114.97533417    0.00000000
                                                     2        1.9037000      123.61668396    0.00000000
                                                     2        2.8364000      -71.13571167    0.00000000
                                                     2        4.5883999       79.01660156    0.00000000
                                                     1       11.1981001       51.28700638    0.00000000
                                                     0       32.2957001        5.65198278    0.00000000
                                      D - G
                                                     2        0.2931000       -0.11365700    0.00000000
                                                     2        1.0301000       -2.40402508    0.00000000
                                                     2        2.0186000       62.58111572    0.00000000
                                                     2        3.4391999      255.44717407    0.00000000
                                                     2        5.1578999     -161.80647278    0.00000000
                                                     2        2.5149000     -175.77076721    0.00000000
                                                     1        8.0623999       63.62079239    0.00000000
                                                     0       41.0284996        6.75031996    0.00000000
                                      F - G
                                                     2        0.4335000      -47.60779953    0.00000000
                                                     2        0.5097000      176.31802368    0.00000000
                                                     2        0.5796000     -168.67689514    0.00000000
                                                     2        0.7711000       54.49244690    0.00000000
                                                     2        2.5934999       37.71539307    0.00000000
                                                     2        8.3907003      -24.13967514    0.00000000
                                                     1        6.9294000       49.16802216    0.00000000
                                                     0       22.2588997        4.75958586    0.00000000
    8         79           11
                                      G and up 
                                                     2        0.9657000       -0.98690200    0.00000000
                                                     2        2.2904000       -9.68630600    0.00000000
                                                     2        6.4383998      -32.57246399    0.00000000
                                                     2       16.3645992     -118.53087616    0.00000000
                                                     2       55.9892998     -286.25463867    0.00000000
                                                     1      171.1013947      -51.27423096    0.00000000
                                      S - G
                                                     2        1.2248000      -84.96929932    0.00000000
                                                     2        1.4336000      280.17764282    0.00000000
                                                     2        1.8929000     -354.64355469    0.00000000
                                                     2        2.6963000      334.33190918    0.00000000
                                                     2        3.9899001     -219.39260864    0.00000000
                                                     2        6.0054998      170.85874939    0.00000000
                                                     1       14.5825996       56.33872986    0.00000000
                                                     0       39.3106995        6.40929985    0.00000000
                                      P - G
                                                     2        0.9064000       -6.91190100    0.00000000
                                                     2        1.0311000       72.12546539    0.00000000
                                                     2        1.3287000     -114.97533417    0.00000000
                                                     2        1.9037000      123.61668396    0.00000000
                                                     2        2.8364000      -71.13571167    0.00000000
                                                     2        4.5883999       79.01660156    0.00000000
                                                     1       11.1981001       51.28700638    0.00000000
                                                     0       32.2957001        5.65198278    0.00000000
                                      D - G
                                                     2        0.2931000       -0.11365700    0.00000000
                                                     2        1.0301000       -2.40402508    0.00000000
                                                     2        2.0186000       62.58111572    0.00000000
                                                     2        3.4391999      255.44717407    0.00000000
                                                     2        5.1578999     -161.80647278    0.00000000
                                                     2        2.5149000     -175.77076721    0.00000000
                                                     1        8.0623999       63.62079239    0.00000000
                                                     0       41.0284996        6.75031996    0.00000000
                                      F - G
                                                     2        0.4335000      -47.60779953    0.00000000
                                                     2        0.5097000      176.31802368    0.00000000
                                                     2        0.5796000     -168.67689514    0.00000000
                                                     2        0.7711000       54.49244690    0.00000000
                                                     2        2.5934999       37.71539307    0.00000000
                                                     2        8.3907003      -24.13967514    0.00000000
                                                     1        6.9294000       49.16802216    0.00000000
                                                     0       22.2588997        4.75958586    0.00000000
    9         79           11
                                      G and up 
                                                     2        0.9657000       -0.98690200    0.00000000
                                                     2        2.2904000       -9.68630600    0.00000000
                                                     2        6.4383998      -32.57246399    0.00000000
                                                     2       16.3645992     -118.53087616    0.00000000
                                                     2       55.9892998     -286.25463867    0.00000000
                                                     1      171.1013947      -51.27423096    0.00000000
                                      S - G
                                                     2        1.2248000      -84.96929932    0.00000000
                                                     2        1.4336000      280.17764282    0.00000000
                                                     2        1.8929000     -354.64355469    0.00000000
                                                     2        2.6963000      334.33190918    0.00000000
                                                     2        3.9899001     -219.39260864    0.00000000
                                                     2        6.0054998      170.85874939    0.00000000
                                                     1       14.5825996       56.33872986    0.00000000
                                                     0       39.3106995        6.40929985    0.00000000
                                      P - G
                                                     2        0.9064000       -6.91190100    0.00000000
                                                     2        1.0311000       72.12546539    0.00000000
                                                     2        1.3287000     -114.97533417    0.00000000
                                                     2        1.9037000      123.61668396    0.00000000
                                                     2        2.8364000      -71.13571167    0.00000000
                                                     2        4.5883999       79.01660156    0.00000000
                                                     1       11.1981001       51.28700638    0.00000000
                                                     0       32.2957001        5.65198278    0.00000000
                                      D - G
                                                     2        0.2931000       -0.11365700    0.00000000
                                                     2        1.0301000       -2.40402508    0.00000000
                                                     2        2.0186000       62.58111572    0.00000000
                                                     2        3.4391999      255.44717407    0.00000000
                                                     2        5.1578999     -161.80647278    0.00000000
                                                     2        2.5149000     -175.77076721    0.00000000
                                                     1        8.0623999       63.62079239    0.00000000
                                                     0       41.0284996        6.75031996    0.00000000
                                      F - G
                                                     2        0.4335000      -47.60779953    0.00000000
                                                     2        0.5097000      176.31802368    0.00000000
                                                     2        0.5796000     -168.67689514    0.00000000
                                                     2        0.7711000       54.49244690    0.00000000
                                                     2        2.5934999       37.71539307    0.00000000
                                                     2        8.3907003      -24.13967514    0.00000000
                                                     1        6.9294000       49.16802216    0.00000000
                                                     0       22.2588997        4.75958586    0.00000000
   10         79           11
                                      G and up 
                                                     2        0.9657000       -0.98690200    0.00000000
                                                     2        2.2904000       -9.68630600    0.00000000
                                                     2        6.4383998      -32.57246399    0.00000000
                                                     2       16.3645992     -118.53087616    0.00000000
                                                     2       55.9892998     -286.25463867    0.00000000
                                                     1      171.1013947      -51.27423096    0.00000000
                                      S - G
                                                     2        1.2248000      -84.96929932    0.00000000
                                                     2        1.4336000      280.17764282    0.00000000
                                                     2        1.8929000     -354.64355469    0.00000000
                                                     2        2.6963000      334.33190918    0.00000000
                                                     2        3.9899001     -219.39260864    0.00000000
                                                     2        6.0054998      170.85874939    0.00000000
                                                     1       14.5825996       56.33872986    0.00000000
                                                     0       39.3106995        6.40929985    0.00000000
                                      P - G
                                                     2        0.9064000       -6.91190100    0.00000000
                                                     2        1.0311000       72.12546539    0.00000000
                                                     2        1.3287000     -114.97533417    0.00000000
                                                     2        1.9037000      123.61668396    0.00000000
                                                     2        2.8364000      -71.13571167    0.00000000
                                                     2        4.5883999       79.01660156    0.00000000
                                                     1       11.1981001       51.28700638    0.00000000
                                                     0       32.2957001        5.65198278    0.00000000
                                      D - G
                                                     2        0.2931000       -0.11365700    0.00000000
                                                     2        1.0301000       -2.40402508    0.00000000
                                                     2        2.0186000       62.58111572    0.00000000
                                                     2        3.4391999      255.44717407    0.00000000
                                                     2        5.1578999     -161.80647278    0.00000000
                                                     2        2.5149000     -175.77076721    0.00000000
                                                     1        8.0623999       63.62079239    0.00000000
                                                     0       41.0284996        6.75031996    0.00000000
                                      F - G
                                                     2        0.4335000      -47.60779953    0.00000000
                                                     2        0.5097000      176.31802368    0.00000000
                                                     2        0.5796000     -168.67689514    0.00000000
                                                     2        0.7711000       54.49244690    0.00000000
                                                     2        2.5934999       37.71539307    0.00000000
                                                     2        8.3907003      -24.13967514    0.00000000
                                                     1        6.9294000       49.16802216    0.00000000
                                                     0       22.2588997        4.75958586    0.00000000
   11          6
                                   No pseudopotential on this center.
   12          6
                                   No pseudopotential on this center.
   13          1
                                   No pseudopotential on this center.
   14          1
                                   No pseudopotential on this center.
   15          6
                                   No pseudopotential on this center.
   16          6
                                   No pseudopotential on this center.
   17          1
                                   No pseudopotential on this center.
   18          6
                                   No pseudopotential on this center.
   19          6
                                   No pseudopotential on this center.
   20          1
                                   No pseudopotential on this center.
   21          1
                                   No pseudopotential on this center.
   22          1
                                   No pseudopotential on this center.
   23         79           11
                                      G and up 
                                                     2        0.9657000       -0.98690200    0.00000000
                                                     2        2.2904000       -9.68630600    0.00000000
                                                     2        6.4383998      -32.57246399    0.00000000
                                                     2       16.3645992     -118.53087616    0.00000000
                                                     2       55.9892998     -286.25463867    0.00000000
                                                     1      171.1013947      -51.27423096    0.00000000
                                      S - G
                                                     2        1.2248000      -84.96929932    0.00000000
                                                     2        1.4336000      280.17764282    0.00000000
                                                     2        1.8929000     -354.64355469    0.00000000
                                                     2        2.6963000      334.33190918    0.00000000
                                                     2        3.9899001     -219.39260864    0.00000000
                                                     2        6.0054998      170.85874939    0.00000000
                                                     1       14.5825996       56.33872986    0.00000000
                                                     0       39.3106995        6.40929985    0.00000000
                                      P - G
                                                     2        0.9064000       -6.91190100    0.00000000
                                                     2        1.0311000       72.12546539    0.00000000
                                                     2        1.3287000     -114.97533417    0.00000000
                                                     2        1.9037000      123.61668396    0.00000000
                                                     2        2.8364000      -71.13571167    0.00000000
                                                     2        4.5883999       79.01660156    0.00000000
                                                     1       11.1981001       51.28700638    0.00000000
                                                     0       32.2957001        5.65198278    0.00000000
                                      D - G
                                                     2        0.2931000       -0.11365700    0.00000000
                                                     2        1.0301000       -2.40402508    0.00000000
                                                     2        2.0186000       62.58111572    0.00000000
                                                     2        3.4391999      255.44717407    0.00000000
                                                     2        5.1578999     -161.80647278    0.00000000
                                                     2        2.5149000     -175.77076721    0.00000000
                                                     1        8.0623999       63.62079239    0.00000000
                                                     0       41.0284996        6.75031996    0.00000000
                                      F - G
                                                     2        0.4335000      -47.60779953    0.00000000
                                                     2        0.5097000      176.31802368    0.00000000
                                                     2        0.5796000     -168.67689514    0.00000000
                                                     2        0.7711000       54.49244690    0.00000000
                                                     2        2.5934999       37.71539307    0.00000000
                                                     2        8.3907003      -24.13967514    0.00000000
                                                     1        6.9294000       49.16802216    0.00000000
                                                     0       22.2588997        4.75958586    0.00000000
   24         79           11
                                      G and up 
                                                     2        0.9657000       -0.98690200    0.00000000
                                                     2        2.2904000       -9.68630600    0.00000000
                                                     2        6.4383998      -32.57246399    0.00000000
                                                     2       16.3645992     -118.53087616    0.00000000
                                                     2       55.9892998     -286.25463867    0.00000000
                                                     1      171.1013947      -51.27423096    0.00000000
                                      S - G
                                                     2        1.2248000      -84.96929932    0.00000000
                                                     2        1.4336000      280.17764282    0.00000000
                                                     2        1.8929000     -354.64355469    0.00000000
                                                     2        2.6963000      334.33190918    0.00000000
                                                     2        3.9899001     -219.39260864    0.00000000
                                                     2        6.0054998      170.85874939    0.00000000
                                                     1       14.5825996       56.33872986    0.00000000
                                                     0       39.3106995        6.40929985    0.00000000
                                      P - G
                                                     2        0.9064000       -6.91190100    0.00000000
                                                     2        1.0311000       72.12546539    0.00000000
                                                     2        1.3287000     -114.97533417    0.00000000
                                                     2        1.9037000      123.61668396    0.00000000
                                                     2        2.8364000      -71.13571167    0.00000000
                                                     2        4.5883999       79.01660156    0.00000000
                                                     1       11.1981001       51.28700638    0.00000000
                                                     0       32.2957001        5.65198278    0.00000000
                                      D - G
                                                     2        0.2931000       -0.11365700    0.00000000
                                                     2        1.0301000       -2.40402508    0.00000000
                                                     2        2.0186000       62.58111572    0.00000000
                                                     2        3.4391999      255.44717407    0.00000000
                                                     2        5.1578999     -161.80647278    0.00000000
                                                     2        2.5149000     -175.77076721    0.00000000
                                                     1        8.0623999       63.62079239    0.00000000
                                                     0       41.0284996        6.75031996    0.00000000
                                      F - G
                                                     2        0.4335000      -47.60779953    0.00000000
                                                     2        0.5097000      176.31802368    0.00000000
                                                     2        0.5796000     -168.67689514    0.00000000
                                                     2        0.7711000       54.49244690    0.00000000
                                                     2        2.5934999       37.71539307    0.00000000
                                                     2        8.3907003      -24.13967514    0.00000000
                                                     1        6.9294000       49.16802216    0.00000000
                                                     0       22.2588997        4.75958586    0.00000000
   25         79           11
                                      G and up 
                                                     2        0.9657000       -0.98690200    0.00000000
                                                     2        2.2904000       -9.68630600    0.00000000
                                                     2        6.4383998      -32.57246399    0.00000000
                                                     2       16.3645992     -118.53087616    0.00000000
                                                     2       55.9892998     -286.25463867    0.00000000
                                                     1      171.1013947      -51.27423096    0.00000000
                                      S - G
                                                     2        1.2248000      -84.96929932    0.00000000
                                                     2        1.4336000      280.17764282    0.00000000
                                                     2        1.8929000     -354.64355469    0.00000000
                                                     2        2.6963000      334.33190918    0.00000000
                                                     2        3.9899001     -219.39260864    0.00000000
                                                     2        6.0054998      170.85874939    0.00000000
                                                     1       14.5825996       56.33872986    0.00000000
                                                     0       39.3106995        6.40929985    0.00000000
                                      P - G
                                                     2        0.9064000       -6.91190100    0.00000000
                                                     2        1.0311000       72.12546539    0.00000000
                                                     2        1.3287000     -114.97533417    0.00000000
                                                     2        1.9037000      123.61668396    0.00000000
                                                     2        2.8364000      -71.13571167    0.00000000
                                                     2        4.5883999       79.01660156    0.00000000
[...]
 Alpha virt. eigenvalues --   -0.01252   0.01020   0.02628   0.03615   0.03666
 Alpha virt. eigenvalues --    0.05115   0.05139   0.06081   0.06082   0.06497
 Alpha virt. eigenvalues --    0.06543   0.06569   0.07645   0.08178   0.08456
 Alpha virt. eigenvalues --    0.09591   0.09903   0.09916   0.10075   0.10324
 Alpha virt. eigenvalues --    0.10418   0.11772   0.11793   0.12427   0.12445
 Alpha virt. eigenvalues --    0.13466   0.13471   0.16681   0.16688   0.17382
 Alpha virt. eigenvalues --    0.19784   0.19829   0.22034   0.22220   0.25768
 Alpha virt. eigenvalues --    0.26037   0.26227   0.26313   0.26935   0.29319
 Alpha virt. eigenvalues --    0.29473   0.29755   0.34059   0.34566   0.35549
 Alpha virt. eigenvalues --    0.35675   0.40225   0.40740   0.42669   0.45671
 Alpha virt. eigenvalues --    0.46032   0.46997   0.54588   0.54743   0.57018
 Alpha virt. eigenvalues --    0.58812   0.59034   0.61969   0.62657   0.68920
 Alpha virt. eigenvalues --    0.81640   0.89277   0.89495   0.92041   0.92540
 Alpha virt. eigenvalues --    1.01821   1.02771   1.03038   1.06250   1.06341
 Alpha virt. eigenvalues --    1.16300   1.16817   1.23798   1.23887   1.25464
 Alpha virt. eigenvalues --    1.25913   1.48570   2.51146   2.90146   3.82035
 Alpha virt. eigenvalues --    3.82414   5.03336   5.04801   7.16076   7.79709
          Condensed to atoms (all electrons):
               1          2          3          4          5          6
     1  Au  11.701812  -0.086119  -0.085697  -0.020428  -0.083002  -0.020449
     2  Au  -0.086119  11.885524  -0.078436  -0.085129  -0.077822  -0.082882
     3  Au  -0.085697  -0.078436  11.885729  -0.082614  -0.078231  -0.085443
     4  Au  -0.020428  -0.085129  -0.082614  11.703365  -0.085324  -0.020436
     5  Au  -0.083002  -0.077822  -0.078231  -0.085324  11.885334  -0.085943
     6  Au  -0.020449  -0.082882  -0.085443  -0.020436  -0.085943  11.702367
     7  Au   0.000552  -0.030887  -0.032115  -0.071054  -0.165024  -0.070733
     8  Au  -0.070126  -0.036453  -0.170687   0.000694  -0.035733  -0.070206
     9  Au  -0.070368  -0.166766  -0.033787  -0.070914  -0.032217   0.000659
    10  Au  -0.006111  -0.163577  -0.162251  -0.005540  -0.164156  -0.005951
    11  C    0.000730  -0.000032  -0.000606   0.000708  -0.000007   0.000711
    12  C    0.000376  -0.001028  -0.001034   0.000533  -0.000085   0.000571
    13  H    0.000115   0.000060  -0.000723   0.000049   0.000043   0.000116
    14  H    0.000112   0.000483   0.000561   0.000061  -0.000120   0.000057
    15  C    0.000543   0.000020  -0.000981   0.000493  -0.000941   0.000380
    16  C    0.000698  -0.000868   0.000079   0.000595   0.000186   0.000591
    17  H    0.000047  -0.000112   0.000534   0.000052   0.000501   0.000055
    18  C    0.000550   0.000203   0.000127   0.000602  -0.000979   0.000663
    19  C    0.000451  -0.000798   0.000206   0.000443  -0.000822   0.000435
    20  H    0.000061  -0.000583   0.000020   0.000082   0.000055   0.000030
    21  H    0.000023   0.000023   0.000031   0.000057  -0.000541   0.000049
    22  H    0.000025   0.000490  -0.000102  -0.000081   0.000451   0.000026
    23  Au   0.000377  -0.002430  -0.002395   0.000349  -0.002453   0.000369
    24  Au   0.000050   0.000038   0.000037   0.000024   0.000005   0.000022
    25  Au   0.000022   0.000027  -0.000001   0.000055   0.000028   0.000022
    26  Au   0.000021   0.000003   0.000033   0.000024   0.000037   0.000051
    27  Au   0.000002   0.000001   0.000001   0.000001   0.000001   0.000001
    28  Au   0.000001  -0.000002  -0.000002   0.000001  -0.000002   0.000001
    29  Au   0.000001  -0.000002  -0.000002   0.000001  -0.000002   0.000001
    30  Au   0.000001   0.000001   0.000001   0.000002   0.000001   0.000001
    31  Au   0.000001  -0.000002  -0.000002   0.000001  -0.000002   0.000001
    32  Au   0.000001   0.000001   0.000001   0.000001   0.000001   0.000002
               7          8          9         10         11         12
     1  Au   0.000552  -0.070126  -0.070368  -0.006111   0.000730   0.000376
     2  Au  -0.030887  -0.036453  -0.166766  -0.163577  -0.000032  -0.001028
     3  Au  -0.032115  -0.170687  -0.033787  -0.162251  -0.000606  -0.001034
     4  Au  -0.071054   0.000694  -0.070914  -0.005540   0.000708   0.000533
     5  Au  -0.165024  -0.035733  -0.032217  -0.164156  -0.000007  -0.000085
     6  Au  -0.070733  -0.070206   0.000659  -0.005951   0.000711   0.000571
     7  Au  11.660962  -0.079982  -0.078639  -0.217123  -0.002040  -0.019682
     8  Au  -0.079982  11.661706  -0.079497  -0.224507  -0.003415  -0.006709
     9  Au  -0.078639  -0.079497  11.660466  -0.219041  -0.001120  -0.004318
    10  Au  -0.217123  -0.224507  -0.219041  13.026946  -0.143895  -0.114539
    11  C   -0.002040  -0.003415  -0.001120  -0.143895   5.366221   0.458292
    12  C   -0.019682  -0.006709  -0.004318  -0.114539   0.458292   5.368311
    13  H    0.000298   0.001617  -0.000104  -0.017499   0.284127  -0.014263
    14  H    0.017967  -0.001205  -0.000867  -0.043143  -0.006105   0.255932
    15  C   -0.002208  -0.005560  -0.017634  -0.113956   0.456441  -0.049564
    16  C   -0.002334   0.000444  -0.001479  -0.123045  -0.072398   0.466305
    17  H   -0.000996  -0.001207   0.017506  -0.038171  -0.008436   0.007749
    18  C   -0.000847   0.000564  -0.001932  -0.116685  -0.074033  -0.017088
    19  C    0.000014  -0.011645  -0.000745  -0.115546  -0.016595  -0.053755
    20  H    0.001030   0.001363   0.000224  -0.012198   0.006115  -0.018319
    21  H   -0.000139   0.001076   0.001584  -0.009601   0.005750   0.000945
    22  H   -0.001203   0.015245  -0.001310  -0.024924   0.002152   0.005790
    23  Au  -0.002930  -0.004045  -0.003322  -0.278801  -0.069467  -0.043596
    24  Au   0.001353   0.000018  -0.000133  -0.003197  -0.000080  -0.014026
    25  Au  -0.000001   0.001175   0.000072  -0.005069   0.001008  -0.000429
    26  Au  -0.000137   0.000089   0.001312  -0.003810   0.000490   0.001302
    27  Au   0.000054   0.000026   0.000024   0.000415   0.000453   0.000128
    28  Au   0.000051   0.000039   0.000015  -0.002954  -0.000053  -0.000476
    29  Au   0.000049   0.000010   0.000045  -0.002908  -0.000399  -0.000432
    30  Au   0.000026   0.000063   0.000027   0.000359   0.000352   0.000283
    31  Au   0.000017   0.000040   0.000049  -0.002980  -0.000051   0.000078
    32  Au   0.000024   0.000027   0.000056   0.000399   0.000428   0.000325
              13         14         15         16         17         18
     1  Au   0.000115   0.000112   0.000543   0.000698   0.000047   0.000550
     2  Au   0.000060   0.000483   0.000020  -0.000868  -0.000112   0.000203
     3  Au  -0.000723   0.000561  -0.000981   0.000079   0.000534   0.000127
     4  Au   0.000049   0.000061   0.000493   0.000595   0.000052   0.000602
     5  Au   0.000043  -0.000120  -0.000941   0.000186   0.000501  -0.000979
     6  Au   0.000116   0.000057   0.000380   0.000591   0.000055   0.000663
     7  Au   0.000298   0.017967  -0.002208  -0.002334  -0.000996  -0.000847
     8  Au   0.001617  -0.001205  -0.005560   0.000444  -0.001207   0.000564
     9  Au  -0.000104  -0.000867  -0.017634  -0.001479   0.017506  -0.001932
    10  Au  -0.017499  -0.043143  -0.113956  -0.123045  -0.038171  -0.116685
    11  C    0.284127  -0.006105   0.456441  -0.072398  -0.008436  -0.074033
    12  C   -0.014263   0.255932  -0.049564   0.466305   0.007749  -0.017088
    13  H    0.430122  -0.001301  -0.011440   0.006496  -0.001653   0.006097
    14  H   -0.001301   0.450067   0.008116  -0.000357  -0.000099   0.001795
    15  C   -0.011440   0.008116   5.343274  -0.016417   0.262086   0.467403
    16  C    0.006496  -0.000357  -0.016417   5.286300   0.001937  -0.075393
    17  H   -0.001653  -0.000099   0.262086   0.001937   0.449313  -0.002663
    18  C    0.006097   0.001795   0.467403  -0.075393  -0.002663   5.267788
    19  C    0.000972   0.006811  -0.053586   0.463423   0.006158   0.469114
    20  H   -0.000079  -0.001591   0.001001   0.299915   0.000008   0.005202
    21  H   -0.000085   0.000007  -0.017688   0.005287  -0.001819   0.302188
    22  H    0.000008  -0.000120   0.005617  -0.009985  -0.000123  -0.008945
    23  Au  -0.004715  -0.016709  -0.040902  -0.051690  -0.015119  -0.047013
    24  Au   0.001121   0.012161   0.002480  -0.000107  -0.000921   0.002573
    25  Au   0.000656  -0.000996   0.000056   0.000699  -0.001089   0.000983
    26  Au   0.000800  -0.000789  -0.012947   0.002193   0.011869  -0.000206
    27  Au   0.000105   0.000164   0.000317   0.000492   0.000022   0.000272
    28  Au   0.000049   0.000327   0.000136  -0.000405  -0.000028   0.000092
    29  Au  -0.000217   0.000347  -0.000387   0.000054   0.000332   0.000080
    30  Au   0.000024   0.000032   0.000255   0.000380   0.000025   0.000412
    31  Au   0.000042  -0.000026  -0.000419   0.000066   0.000329  -0.000418
    32  Au   0.000106   0.000028   0.000146   0.000293   0.000127   0.000482
              19         20         21         22         23         24
     1  Au   0.000451   0.000061   0.000023   0.000025   0.000377   0.000050
     2  Au  -0.000798  -0.000583   0.000023   0.000490  -0.002430   0.000038
     3  Au   0.000206   0.000020   0.000031  -0.000102  -0.002395   0.000037
     4  Au   0.000443   0.000082   0.000057  -0.000081   0.000349   0.000024
     5  Au  -0.000822   0.000055  -0.000541   0.000451  -0.002453   0.000005
     6  Au   0.000435   0.000030   0.000049   0.000026   0.000369   0.000022
     7  Au   0.000014   0.001030  -0.000139  -0.001203  -0.002930   0.001353
     8  Au  -0.011645   0.001363   0.001076   0.015245  -0.004045   0.000018
     9  Au  -0.000745   0.000224   0.001584  -0.001310  -0.003322  -0.000133
    10  Au  -0.115546  -0.012198  -0.009601  -0.024924  -0.278801  -0.003197
    11  C   -0.016595   0.006115   0.005750   0.002152  -0.069467  -0.000080
    12  C   -0.053755  -0.018319   0.000945   0.005790  -0.043596  -0.014026
    13  H    0.000972  -0.000079  -0.000085   0.000008  -0.004715   0.001121
    14  H    0.006811  -0.001591   0.000007  -0.000120  -0.016709   0.012161
    15  C   -0.053586   0.001001  -0.017688   0.005617  -0.040902   0.002480
    16  C    0.463423   0.299915   0.005287  -0.009985  -0.051690  -0.000107
    17  H    0.006158   0.000008  -0.001819  -0.000123  -0.015119  -0.000921
    18  C    0.469114   0.005202   0.302188  -0.008945  -0.047013   0.002573
    19  C    5.301606  -0.012832  -0.014234   0.271854  -0.039271   0.003303
    20  H   -0.012832   0.425802  -0.000093  -0.002181  -0.004190   0.001362
    21  H   -0.014234  -0.000093   0.425584  -0.002290  -0.003702  -0.000566
    22  H    0.271854  -0.002181  -0.002290   0.446983  -0.010721  -0.001202
    23  Au  -0.039271  -0.004190  -0.003702  -0.010721  12.433662  -0.157333
    24  Au   0.003303   0.001362  -0.000566  -0.001202  -0.157333  11.662693
    25  Au  -0.009420   0.001555   0.001280   0.010374  -0.159265  -0.126035
    26  Au   0.002772  -0.000316   0.001656  -0.001252  -0.157755  -0.125758
    27  Au   0.000253   0.000057   0.000009   0.000007  -0.014385  -0.009706
    28  Au  -0.000281  -0.000188   0.000028   0.000298  -0.145788  -0.036547
    29  Au   0.000224   0.000025   0.000030  -0.000034  -0.145066  -0.037108
    30  Au   0.000241   0.000077   0.000053   0.000028  -0.013617  -0.070247
    31  Au  -0.000304   0.000046  -0.000184   0.000285  -0.146143  -0.175729
    32  Au   0.000241   0.000012   0.000048   0.000008  -0.014159  -0.070087
              25         26         27         28         29         30
     1  Au   0.000022   0.000021   0.000002   0.000001   0.000001   0.000001
     2  Au   0.000027   0.000003   0.000001  -0.000002  -0.000002   0.000001
     3  Au  -0.000001   0.000033   0.000001  -0.000002  -0.000002   0.000001
     4  Au   0.000055   0.000024   0.000001   0.000001   0.000001   0.000002
     5  Au   0.000028   0.000037   0.000001  -0.000002  -0.000002   0.000001
     6  Au   0.000022   0.000051   0.000001   0.000001   0.000001   0.000001
     7  Au  -0.000001  -0.000137   0.000054   0.000051   0.000049   0.000026
     8  Au   0.001175   0.000089   0.000026   0.000039   0.000010   0.000063
     9  Au   0.000072   0.001312   0.000024   0.000015   0.000045   0.000027
    10  Au  -0.005069  -0.003810   0.000415  -0.002954  -0.002908   0.000359
    11  C    0.001008   0.000490   0.000453  -0.000053  -0.000399   0.000352
    12  C   -0.000429   0.001302   0.000128  -0.000476  -0.000432   0.000283
    13  H    0.000656   0.000800   0.000105   0.000049  -0.000217   0.000024
    14  H   -0.000996  -0.000789   0.000164   0.000327   0.000347   0.000032
    15  C    0.000056  -0.012947   0.000317   0.000136  -0.000387   0.000255
    16  C    0.000699   0.002193   0.000492  -0.000405   0.000054   0.000380
    17  H   -0.001089   0.011869   0.000022  -0.000028   0.000332   0.000025
    18  C    0.000983  -0.000206   0.000272   0.000092   0.000080   0.000412
    19  C   -0.009420   0.002772   0.000253  -0.000281   0.000224   0.000241
    20  H    0.001555  -0.000316   0.000057  -0.000188   0.000025   0.000077
    21  H    0.001280   0.001656   0.000009   0.000028   0.000030   0.000053
    22  H    0.010374  -0.001252   0.000007   0.000298  -0.000034   0.000028
    23  Au  -0.159265  -0.157755  -0.014385  -0.145788  -0.145066  -0.013617
    24  Au  -0.126035  -0.125758  -0.009706  -0.036547  -0.037108  -0.070247
    25  Au  11.662128  -0.125665  -0.069450  -0.039025  -0.178750  -0.009000
    26  Au  -0.125665  11.662229  -0.069801  -0.176687  -0.037879  -0.070084
    27  Au  -0.069450  -0.069801  11.702554  -0.089109  -0.088981  -0.019041
    28  Au  -0.039025  -0.176687  -0.089109  11.885553  -0.078814  -0.088911
    29  Au  -0.178750  -0.037879  -0.088981  -0.078814  11.885549  -0.083440
    30  Au  -0.009000  -0.070084  -0.019041  -0.088911  -0.083440  11.703941
    31  Au  -0.038705  -0.037183  -0.083652  -0.078320  -0.078637  -0.088953
    32  Au  -0.069494  -0.009382  -0.019043  -0.083583  -0.088963  -0.019052
              31         32
     1  Au   0.000001   0.000001
     2  Au  -0.000002   0.000001
     3  Au  -0.000002   0.000001
     4  Au   0.000001   0.000001
     5  Au  -0.000002   0.000001
     6  Au   0.000001   0.000002
     7  Au   0.000017   0.000024
     8  Au   0.000040   0.000027
     9  Au   0.000049   0.000056
    10  Au  -0.002980   0.000399
    11  C   -0.000051   0.000428
    12  C    0.000078   0.000325
    13  H    0.000042   0.000106
    14  H   -0.000026   0.000028
    15  C   -0.000419   0.000146
    16  C    0.000066   0.000293
    17  H    0.000329   0.000127
    18  C   -0.000418   0.000482
    19  C   -0.000304   0.000241
    20  H    0.000046   0.000012
    21  H   -0.000184   0.000048
    22  H    0.000285   0.000008
    23  Au  -0.146143  -0.014159
    24  Au  -0.175729  -0.070087
    25  Au  -0.038705  -0.069494
    26  Au  -0.037183  -0.009382
    27  Au  -0.083652  -0.019043
    28  Au  -0.078320  -0.083583
    29  Au  -0.078637  -0.088963
    30  Au  -0.088953  -0.019052
    31  Au  11.885605  -0.089064
    32  Au  -0.089064  11.702934
 Mulliken charges:
               1
     1  Au  -0.264272
     2  Au  -0.072947
     3  Au  -0.072250
     4  Au  -0.266673
     5  Au  -0.073235
     6  Au  -0.265137
     7  Au   0.095679
     8  Au   0.116782
     9  Au   0.102156
    10  Au   0.313060
    11  C   -0.185246
    12  C   -0.207577
    13  H    0.319059
    14  H    0.318399
    15  C   -0.204132
    16  C   -0.181954
    17  H    0.313787
    18  C   -0.180987
    19  C   -0.198688
    20  H    0.308527
    21  H    0.305234
    22  H    0.304832
    23  Au   0.162225
    24  Au   0.141543
    25  Au   0.152256
    26  Au   0.144771
    27  Au  -0.242189
    28  Au  -0.065415
    29  Au  -0.064725
    30  Au  -0.244238
    31  Au  -0.065786
    32  Au  -0.242862
 Sum of Mulliken charges =  -0.00000
 Mulliken charges with hydrogens summed into heavy atoms:
               1
     1  Au  -0.264272
     2  Au  -0.072947
     3  Au  -0.072250
     4  Au  -0.266673
     5  Au  -0.073235
     6  Au  -0.265137
     7  Au   0.095679
     8  Au   0.116782
     9  Au   0.102156
    10  Au   0.313060
    11  C    0.133813
    12  C    0.110822
    15  C    0.109655
    16  C    0.126573
    18  C    0.124247
    19  C    0.106144
    23  Au   0.162225
    24  Au   0.141543
    25  Au   0.152256
    26  Au   0.144771
    27  Au  -0.242189
    28  Au  -0.065415
    29  Au  -0.064725
    30  Au  -0.244238
    31  Au  -0.065786
    32  Au  -0.242862
 Electronic spatial extent (au):  <R**2>=          27902.5687
 Charge=             -0.0000 electrons
 Dipole moment (field-independent basis, Debye):
    X=              0.2375    Y=              0.2946    Z=             -0.0017  Tot=              0.3784
 Quadrupole moment (field-independent basis, Debye-Ang):
   XX=           -617.8646   YY=           -454.9523   ZZ=           -454.9478
   XY=              0.0696   XZ=              0.0006   YZ=              0.0355
 Traceless Quadrupole moment (field-independent basis, Debye-Ang):
   XX=           -108.6097   YY=             54.3026   ZZ=             54.3071
   XY=              0.0696   XZ=              0.0006   YZ=              0.0355
 Octapole moment (field-independent basis, Debye-Ang**2):
  XXX=            -11.2734  YYY=            -31.4216  ZZZ=            -30.4037  XYY=             -0.4220
  XXY=             -5.4149  XXZ=              0.0097  XZZ=             -0.4466  YZZ=             21.2979
  YYZ=             30.4378  XYZ=              0.0004
 Hexadecapole moment (field-independent basis, Debye-Ang**3):
 XXXX=         -80797.4118 YYYY=          -7695.3714 ZZZZ=          -7689.6195 XXXY=             -2.3506
 XXXZ=             -0.0012 YYYX=             -0.4271 YYYZ=              0.5112 ZZZX=              0.7942
 ZZZY=              0.4548 XXYY=         -14717.9176 XXZZ=         -14714.9000 YYZZ=          -2564.1360
 XXYZ=              1.1978 YYXZ=             -0.7894 ZZXY=             -0.9694
 N-N= 3.435361491436D+03 E-N=-9.119662822190D+03  KE= 7.312029327480D+02
 No NMR shielding tensors so no spin-rotation constants.
 Leave Link  601 at Fri Apr 30 15:57:25 2021, MaxMem=   134217728 cpu:         0.4
 (Enter /home/palacios/Gaussian/g09/l9999.exe)
 1\1\GINC-UBUNTU-MAC\SP\RSVWN\Gen\C6H6Au20\PALACIOS\30-Apr-2021\0\\#p l
 sda/gen pseudo=read pop=min Scf=(conver=5,maxcycle=1000,dsymm,nodamp)\
 \input_Electrodo_Au_3_benzene\\0,1\Au,0,-2.9126,1.60531,-8.44795\Au,0,
 -0.07144,1.60531,-8.44795\Au,0,-1.49202,-0.8552,-8.44795\Au,0,2.76972,
 1.60531,-8.44795\Au,0,1.34914,-0.8552,-8.44795\Au,0,-0.07144,-3.31571,
 -8.44795\Au,0,-1.49202,0.78514,-6.12815\Au,0,1.34914,0.78514,-6.12815\
 Au,0,-0.07144,-1.67537,-6.12815\Au,0,-0.07144,-0.03503,-4.8\C,0,-1.130
 96,-0.67288,-2.38489\C,0,-1.10376,0.72582,-2.38489\H,0,-2.07866,-1.195
 78,-2.38489\H,0,-2.03046,1.28512,-2.38489\C,0,0.06674,-1.39588,-2.3848
 9\C,0,0.12114,1.40172,-2.38489\H,0,0.04574,-2.47798,-2.38489\C,0,1.291
 74,-0.72008,-2.38489\C,0,1.31894,0.67872,-2.38489\H,0,0.14224,2.48382,
 -2.38489\H,0,2.21834,-1.27938,-2.38489\H,0,2.26664,1.20152,-2.38489\Au
 ,0,-0.07144,-0.03503,0.4\Au,0,-1.49202,0.78514,1.72815\Au,0,1.34914,0.
 78514,1.72815\Au,0,-0.07144,-1.67537,1.72815\Au,0,-2.9126,1.60531,4.04
 795\Au,0,-0.07144,1.60531,4.04795\Au,0,-1.49202,-0.8552,4.04795\Au,0,2
 .76972,1.60531,4.04795\Au,0,1.34914,-0.8552,4.04795\Au,0,-0.07144,-3.3
 1571,4.04795\\Version=EM64L-G09RevD.01\State=1-A\HF=-926.8969695\RMSD=
 5.652e-07\Dipole=0.1129418,0.0261074,-0.093431\Quadrupole=40.3841532,4
 0.3645092,-80.7486625,-0.0245473,-0.0468922,-0.0101042\PG=C01 [X(C6H6A
 u20)]\\@


 EXPERIENCE IS THE FRUIT OF THE TREE OF ERRORS.
 Job cpu time:       0 days  0 hours 15 minutes 43.9 seconds.
 File lengths (MBytes):  RWF=     33 Int=      0 D2E=      0 Chk=      3 Scr=      1
 Normal termination of Gaussian 09 at Fri Apr 30 15:57:26 2021.
