 Entering Gaussian System, Link 0=g09
 Input=Al-benzene-Al.gjf
 Output=Al-benzene-Al.log
 Initial command:
 /home/palacios/gaussian/g09/l1.exe "/home/palacios/scratch/Gau-11614.inp" -scrdir="/home/palacios/scratch/"
 Entering Link 1 = /home/palacios/gaussian/g09/l1.exe PID=     11616.
  
 Copyright (c) 1988,1990,1992,1993,1995,1998,2003,2009,2013,
            Gaussian, Inc.  All Rights Reserved.
  
 This is part of the Gaussian(R) 09 program.  It is based on
 the Gaussian(R) 03 system (copyright 2003, Gaussian, Inc.),
 the Gaussian(R) 98 system (copyright 1998, Gaussian, Inc.),
 the Gaussian(R) 94 system (copyright 1995, Gaussian, Inc.),
 the Gaussian 92(TM) system (copyright 1992, Gaussian, Inc.),
 the Gaussian 90(TM) system (copyright 1990, Gaussian, Inc.),
 the Gaussian 88(TM) system (copyright 1988, Gaussian, Inc.),
 the Gaussian 86(TM) system (copyright 1986, Carnegie Mellon
 University), and the Gaussian 82(TM) system (copyright 1983,
 Carnegie Mellon University). Gaussian is a federally registered
 trademark of Gaussian, Inc.
  
 This software contains proprietary and confidential information,
 including trade secrets, belonging to Gaussian, Inc.
  
 This software is provided under written license and may be
 used, copied, transmitted, or stored only in accord with that
 written license.
  
 The following legend is applicable only to US Government
 contracts under FAR:
  
                    RESTRICTED RIGHTS LEGEND
  
 Use, reproduction and disclosure by the US Government is
 subject to restrictions as set forth in subparagraphs (a)
 and (c) of the Commercial Computer Software - Restricted
 Rights clause in FAR 52.227-19.
  
 Gaussian, Inc.
 340 Quinnipiac St., Bldg. 40, Wallingford CT 06492
  
  
 ---------------------------------------------------------------
 Warning -- This program may not be used in any manner that
 competes with the business of Gaussian, Inc. or will provide
 assistance to any competitor of Gaussian, Inc.  The licensee
 of this program is prohibited from giving any competitor of
 Gaussian, Inc. access to this program.  By using this program,
 the user acknowledges that Gaussian, Inc. is engaged in the
 business of creating and licensing software in the field of
 computational chemistry and represents and warrants to the
 licensee that it is not a competitor of Gaussian, Inc. and that
 it will not use this program in any manner prohibited above.
 ---------------------------------------------------------------
  

 Cite this work as:
 Gaussian 09, Revision D.01,
 M. J. Frisch, G. W. Trucks, H. B. Schlegel, G. E. Scuseria, 
 M. A. Robb, J. R. Cheeseman, G. Scalmani, V. Barone, B. Mennucci, 
 G. A. Petersson, H. Nakatsuji, M. Caricato, X. Li, H. P. Hratchian, 
 A. F. Izmaylov, J. Bloino, G. Zheng, J. L. Sonnenberg, M. Hada, 
 M. Ehara, K. Toyota, R. Fukuda, J. Hasegawa, M. Ishida, T. Nakajima, 
 Y. Honda, O. Kitao, H. Nakai, T. Vreven, J. A. Montgomery, Jr., 
 J. E. Peralta, F. Ogliaro, M. Bearpark, J. J. Heyd, E. Brothers, 
 K. N. Kudin, V. N. Staroverov, T. Keith, R. Kobayashi, J. Normand, 
 K. Raghavachari, A. Rendell, J. C. Burant, S. S. Iyengar, J. Tomasi, 
 M. Cossi, N. Rega, J. M. Millam, M. Klene, J. E. Knox, J. B. Cross, 
 V. Bakken, C. Adamo, J. Jaramillo, R. Gomperts, R. E. Stratmann, 
 O. Yazyev, A. J. Austin, R. Cammi, C. Pomelli, J. W. Ochterski, 
 R. L. Martin, K. Morokuma, V. G. Zakrzewski, G. A. Voth, 
 P. Salvador, J. J. Dannenberg, S. Dapprich, A. D. Daniels, 
 O. Farkas, J. B. Foresman, J. V. Ortiz, J. Cioslowski, 
 and D. J. Fox, Gaussian, Inc., Wallingford CT, 2013.
 
 ******************************************
 Gaussian 09:  ES64L-G09RevD.01 24-Apr-2013
                12-Feb-2016 
 ******************************************
 %mem=2000mb
 %nproc=4
 Will use up to    4 processors via shared memory.
 %Subst L101 ../bin
 %Subst L502 ../bin
 ---------------------------------------------------------
 #p blyp/gen pseudo=read scf=(maxcycle=300,conver=5,dsymm)
 ---------------------------------------------------------
 1/38=1/1;
 2/12=2,17=6,18=5,40=1/2;
 3/5=7,11=2,16=1,17=8,25=1,30=1,74=402/1,2,3;
 4//1;
 5/5=2,6=5,7=300,17=200,38=5/2;
 6/7=2,8=2,9=2,10=2,28=1/1;
 99/5=1,9=1/99;
 Leave Link    1 at Fri Feb 12 12:14:12 2016, MaxMem=   262144000 cpu:         0.2
 (Enter ../bin/l101.exe)
 -------------
 Al-benzene-Al
 -------------
 Symbolic Z-matrix:
 Charge =  0 Multiplicity = 1
 Al                    8.256     9.8384    31.62968 
 Al                    9.504     12.       31.62968 
 Al                    10.752    14.1616   31.62968 
 Al                    12.       16.3232   31.62968 
 Al                    10.752    9.8384    31.62968 
 Al                    12.       12.       31.62968 
 Al                    13.248    14.1616   31.62968 
 Al                    13.248    9.8384    31.62968 
 Al                    14.496    12.       31.62968 
 Al                    15.744    9.8384    31.62968 
 Al                    9.504     10.55893   29.59169 
 Al                    10.752    12.72053   29.59169 
 Al                    12.       14.88213   29.59169 
 Al                    12.       10.55893   29.59169 
 Al                    13.248    12.72053   29.59169 
 Al                    14.496    10.55893   29.59169 
 Al                    10.752    11.27947   27.55372 
 Al                    12.       13.44107   27.55372 
 Al                    13.248    11.27947   27.55372 
 Al                    11.99982   12.00568   25.6682 
 C                     11.9992   13.43669   23.97027 
 C                     10.7577   12.7216   23.98759 
 C                     10.75925   11.28891   24.01333 
 C                     11.99972   10.57114   24.02376 
 C                     13.23998   11.28928   24.01283 
 C                     13.24094   12.72203   23.98729 
 H                     11.99899   14.52551   23.94972 
 H                     9.81499   13.26589   23.97784 
 H                     9.81611   10.74465   24.02366 
 H                     11.99988   9.48276   24.04349 
 H                     14.1833   10.74527   24.02289 
 H                     14.18349   13.26664   23.97695 
 Al                    11.99972   11.99719   22.33112 
 Al                    10.752    11.27947   20.44626 
 Al                    12.       13.44107   20.44626 
 Al                    13.248    11.27947   20.44626 
 Al                    9.504     10.55893   18.40829 
 Al                    10.752    12.72053   18.40829 
 Al                    12.       14.88213   18.40829 
 Al                    12.       10.55893   18.40829 
 Al                    13.248    12.72053   18.40829 
 Al                    14.496    10.55893   18.40829 
 Al                    8.256     9.8384    16.37032 
 Al                    9.504     12.       16.37032 
 Al                    10.752    14.1616   16.37032 
 Al                    12.       16.3232   16.37032 
 Al                    10.752    9.8384    16.37032 
 Al                    12.       12.       16.37032 
 Al                    13.248    14.1616   16.37032 
 Al                    13.248    9.8384    16.37032 
 Al                    14.496    12.       16.37032 
 Al                    15.744    9.8384    16.37032 
 
 NAtoms=     52 NQM=       52 NQMF=       0 NMMI=      0 NMMIF=      0
                NMic=       0 NMicF=      0.
                    Isotopes and Nuclear Properties:
 (Nuclear quadrupole moments (NQMom) in fm**2, nuclear magnetic moments (NMagM)
  in nuclear magnetons)

  Atom         1           2           3           4           5           6           7           8           9          10
 IAtWgt=          27          27          27          27          27          27          27          27          27          27
 AtmWgt=  26.9815413  26.9815413  26.9815413  26.9815413  26.9815413  26.9815413  26.9815413  26.9815413  26.9815413  26.9815413
 NucSpn=           5           5           5           5           5           5           5           5           5           5
 AtZEff=   0.0000000   0.0000000   0.0000000   0.0000000   0.0000000   0.0000000   0.0000000   0.0000000   0.0000000   0.0000000
 NQMom=   14.6600000  14.6600000  14.6600000  14.6600000  14.6600000  14.6600000  14.6600000  14.6600000  14.6600000  14.6600000
 NMagM=    3.6415040   3.6415040   3.6415040   3.6415040   3.6415040   3.6415040   3.6415040   3.6415040   3.6415040   3.6415040
 AtZNuc=  13.0000000  13.0000000  13.0000000  13.0000000  13.0000000  13.0000000  13.0000000  13.0000000  13.0000000  13.0000000

  Atom        11          12          13          14          15          16          17          18          19          20
 IAtWgt=          27          27          27          27          27          27          27          27          27          27
 AtmWgt=  26.9815413  26.9815413  26.9815413  26.9815413  26.9815413  26.9815413  26.9815413  26.9815413  26.9815413  26.9815413
 NucSpn=           5           5           5           5           5           5           5           5           5           5
 AtZEff=   0.0000000   0.0000000   0.0000000   0.0000000   0.0000000   0.0000000   0.0000000   0.0000000   0.0000000   0.0000000
 NQMom=   14.6600000  14.6600000  14.6600000  14.6600000  14.6600000  14.6600000  14.6600000  14.6600000  14.6600000  14.6600000
 NMagM=    3.6415040   3.6415040   3.6415040   3.6415040   3.6415040   3.6415040   3.6415040   3.6415040   3.6415040   3.6415040
 AtZNuc=  13.0000000  13.0000000  13.0000000  13.0000000  13.0000000  13.0000000  13.0000000  13.0000000  13.0000000  13.0000000

  Atom        21          22          23          24          25          26          27          28          29          30
 IAtWgt=          12          12          12          12          12          12           1           1           1           1
 AtmWgt=  12.0000000  12.0000000  12.0000000  12.0000000  12.0000000  12.0000000   1.0078250   1.0078250   1.0078250   1.0078250
 NucSpn=           0           0           0           0           0           0           1           1           1           1
 AtZEff=   0.0000000   0.0000000   0.0000000   0.0000000   0.0000000   0.0000000   0.0000000   0.0000000   0.0000000   0.0000000
 NQMom=    0.0000000   0.0000000   0.0000000   0.0000000   0.0000000   0.0000000   0.0000000   0.0000000   0.0000000   0.0000000
 NMagM=    0.0000000   0.0000000   0.0000000   0.0000000   0.0000000   0.0000000   2.7928460   2.7928460   2.7928460   2.7928460
 AtZNuc=   6.0000000   6.0000000   6.0000000   6.0000000   6.0000000   6.0000000   1.0000000   1.0000000   1.0000000   1.0000000

  Atom        31          32          33          34          35          36          37          38          39          40
 IAtWgt=           1           1          27          27          27          27          27          27          27          27
 AtmWgt=   1.0078250   1.0078250  26.9815413  26.9815413  26.9815413  26.9815413  26.9815413  26.9815413  26.9815413  26.9815413
 NucSpn=           1           1           5           5           5           5           5           5           5           5
 AtZEff=   0.0000000   0.0000000   0.0000000   0.0000000   0.0000000   0.0000000   0.0000000   0.0000000   0.0000000   0.0000000
 NQMom=    0.0000000   0.0000000  14.6600000  14.6600000  14.6600000  14.6600000  14.6600000  14.6600000  14.6600000  14.6600000
 NMagM=    2.7928460   2.7928460   3.6415040   3.6415040   3.6415040   3.6415040   3.6415040   3.6415040   3.6415040   3.6415040
 AtZNuc=   1.0000000   1.0000000  13.0000000  13.0000000  13.0000000  13.0000000  13.0000000  13.0000000  13.0000000  13.0000000

  Atom        41          42          43          44          45          46          47          48          49          50
 IAtWgt=          27          27          27          27          27          27          27          27          27          27
 AtmWgt=  26.9815413  26.9815413  26.9815413  26.9815413  26.9815413  26.9815413  26.9815413  26.9815413  26.9815413  26.9815413
 NucSpn=           5           5           5           5           5           5           5           5           5           5
 AtZEff=   0.0000000   0.0000000   0.0000000   0.0000000   0.0000000   0.0000000   0.0000000   0.0000000   0.0000000   0.0000000
 NQMom=   14.6600000  14.6600000  14.6600000  14.6600000  14.6600000  14.6600000  14.6600000  14.6600000  14.6600000  14.6600000
 NMagM=    3.6415040   3.6415040   3.6415040   3.6415040   3.6415040   3.6415040   3.6415040   3.6415040   3.6415040   3.6415040
 AtZNuc=  13.0000000  13.0000000  13.0000000  13.0000000  13.0000000  13.0000000  13.0000000  13.0000000  13.0000000  13.0000000

  Atom        51          52
 IAtWgt=          27          27
 AtmWgt=  26.9815413  26.9815413
 NucSpn=           5           5
 AtZEff=   0.0000000   0.0000000
 NQMom=   14.6600000  14.6600000
 NMagM=    3.6415040   3.6415040
 AtZNuc=  13.0000000  13.0000000
 Leave Link  101 at Fri Feb 12 12:14:13 2016, MaxMem=   262144000 cpu:         0.8
 (Enter /home/palacios/gaussian/g09/l202.exe)
 This structure is nearly, but not quite of a higher symmetry.
 Consider Symm=Loose if the higher symmetry is desired.
 Stoichiometry    C6H6Al40
 Framework group  C1[X(C6H6Al40)]
 Deg. of freedom   150
 Full point group                 C1      NOp   1
 Largest Abelian subgroup         C1      NOp   1
 Largest concise Abelian subgroup C1      NOp   1
                         Standard orientation:                         
 ---------------------------------------------------------------------
 Center     Atomic      Atomic             Coordinates (Angstroms)
 Number     Number       Type             X           Y           Z
 ---------------------------------------------------------------------
      1         13           0        7.629859   -3.505885   -2.529597
      2         13           0        7.629763   -2.483115   -0.252766
      3         13           0        7.629668   -1.460344    2.024065
      4         13           0        7.629572   -0.437574    4.300896
      5         13           0        7.629858   -1.022707   -2.276927
      6         13           0        7.629762    0.000064   -0.000096
      7         13           0        7.629667    1.022834    2.276735
      8         13           0        7.629857    1.460471   -2.024257
      9         13           0        7.629761    2.483242    0.252574
     10         13           0        7.629856    3.943650   -1.771587
     11         13           0        5.591836   -2.337227   -1.686522
     12         13           0        5.591741   -1.314456    0.590309
     13         13           0        5.591646   -0.291686    2.867139
     14         13           0        5.591836    0.145951   -1.433853
     15         13           0        5.591740    1.168722    0.842978
     16         13           0        5.591835    2.629130   -1.181183
     17         13           0        3.553834   -1.168570   -0.843438
     18         13           0        3.553739   -0.145799    1.433393
     19         13           0        3.553833    1.314608   -0.590768
     20         13           0        1.668282   -0.000666    0.005276
     21          6           0       -0.029711   -0.146137    1.428798
     22          6           0       -0.012359   -1.308871    0.591705
     23          6           0        0.013444   -1.162298   -0.833467
     24          6           0        0.023905    0.144459   -1.421977
     25          6           0        0.012943    1.305651   -0.581975
     26          6           0       -0.012660    1.161569    0.843511
     27          1           0       -0.050309   -0.256567    2.512002
     28          1           0       -0.022133   -2.301837    1.037768
     29          1           0        0.023798   -2.045498   -1.470405
     30          1           0        0.043683    0.254795   -2.504749
     31          1           0        0.023027    2.299195   -1.027698
     32          1           0       -0.023024    2.044146    1.480737
     33         13           0       -1.668798    0.000107   -0.003327
     34         13           0       -3.553626   -1.168541   -0.843749
     35         13           0       -3.553721   -0.145770    1.433082
     36         13           0       -3.553627    1.314637   -0.591079
     37         13           0       -5.591564   -2.337181   -1.687012
     38         13           0       -5.591659   -1.314411    0.589819
     39         13           0       -5.591754   -0.291640    2.866650
     40         13           0       -5.591564    0.145997   -1.434342
     41         13           0       -5.591660    1.168767    0.842489
     42         13           0       -5.591565    2.629175   -1.181672
     43         13           0       -7.629501   -3.505823   -2.530264
     44         13           0       -7.629597   -2.483052   -0.253433
     45         13           0       -7.629692   -1.460282    2.023398
     46         13           0       -7.629788   -0.437512    4.300229
     47         13           0       -7.629502   -1.022645   -2.277594
     48         13           0       -7.629598    0.000126   -0.000763
     49         13           0       -7.629693    1.022896    2.276068
     50         13           0       -7.629503    1.460534   -2.024924
     51         13           0       -7.629599    2.483304    0.251907
     52         13           0       -7.629504    3.943712   -1.772254
 ---------------------------------------------------------------------
 Rotational constants (GHZ):      0.0697432      0.0106722      0.0106722
 Leave Link  202 at Fri Feb 12 12:14:14 2016, MaxMem=   262144000 cpu:         0.4
 (Enter /home/palacios/gaussian/g09/l301.exe)
 General basis read from cards:  (5D, 7F)
 Centers:      21     22     23     24     25     26
 sto-3g
 ****
 Centers:      27     28     29     30     31     32
 sto-3g
 ****
 Centers:       1      2      3      4      5      6      7      8      9     10
 Centers:      11     12     13     14     15     16     17     18     19     20
 Centers:      33     34     35     36     37     38     39     40     41     42
 Centers:      43     44     45     46     47     48     49     50     51     52
 S 4 1.0
     Exponent=  9.3510000000D+00 Coefficients= -2.1380000000D-03
     Exponent=  9.5720000000D-01 Coefficients= -2.2640700000D-01
     Exponent=  1.5860000000D-01 Coefficients=  7.5270300000D-01
     Exponent=  5.3810000000D-02 Coefficients=  3.9316600000D-01
 P 4 1.0
     Exponent=  3.9060000000D+00 Coefficients= -8.5700000000D-03
     Exponent=  1.5760000000D+00 Coefficients= -1.5353000000D-02
     Exponent=  1.9770000000D-01 Coefficients=  4.8544000000D-01
     Exponent=  5.7300000000D-02 Coefficients=  6.2200600000D-01
 ****
 ======================================================================================================
                                       Pseudopotential Parameters
 ======================================================================================================
  Center     Atomic      Valence      Angular      Power
  Number     Number     Electrons     Momentum     of R      Exponent        Coefficient   SO-Coeffient
 ======================================================================================================
    1         13            3
                                      D and up 
                                                     2        1.2211000       -0.53798100    0.00000000
                                                     2        3.3681000       -5.45975600    0.00000000
                                                     2        9.7500000      -16.65534300    0.00000000
                                                     1       29.2693000       -6.47521500    0.00000000
                                      S - D
                                                     2        1.5631000      -56.20521300    0.00000000
                                                     2        1.7712000      149.68995500    0.00000000
                                                     2        2.0623000      -91.45439400    0.00000000
                                                     1        3.3583000        3.72894900    0.00000000
                                                     0        2.1300000        3.03799400    0.00000000
                                      P - D
                                                     2        1.8231000       93.67560600    0.00000000
                                                     2        2.1249000     -189.88896800    0.00000000
                                                     2        2.5705000      110.24810400    0.00000000
                                                     1        1.7575000        4.19959600    0.00000000
                                                     0        6.7693000        5.00335600    0.00000000
    2         13            3
                                      D and up 
                                                     2        1.2211000       -0.53798100    0.00000000
                                                     2        3.3681000       -5.45975600    0.00000000
                                                     2        9.7500000      -16.65534300    0.00000000
                                                     1       29.2693000       -6.47521500    0.00000000
                                      S - D
                                                     2        1.5631000      -56.20521300    0.00000000
                                                     2        1.7712000      149.68995500    0.00000000
                                                     2        2.0623000      -91.45439400    0.00000000
                                                     1        3.3583000        3.72894900    0.00000000
                                                     0        2.1300000        3.03799400    0.00000000
                                      P - D
                                                     2        1.8231000       93.67560600    0.00000000
                                                     2        2.1249000     -189.88896800    0.00000000
                                                     2        2.5705000      110.24810400    0.00000000
                                                     1        1.7575000        4.19959600    0.00000000
                                                     0        6.7693000        5.00335600    0.00000000
    3         13            3
                                      D and up 
                                                     2        1.2211000       -0.53798100    0.00000000
                                                     2        3.3681000       -5.45975600    0.00000000
                                                     2        9.7500000      -16.65534300    0.00000000
                                                     1       29.2693000       -6.47521500    0.00000000
                                      S - D
                                                     2        1.5631000      -56.20521300    0.00000000
                                                     2        1.7712000      149.68995500    0.00000000
                                                     2        2.0623000      -91.45439400    0.00000000
                                                     1        3.3583000        3.72894900    0.00000000
                                                     0        2.1300000        3.03799400    0.00000000
                                      P - D
                                                     2        1.8231000       93.67560600    0.00000000
                                                     2        2.1249000     -189.88896800    0.00000000
                                                     2        2.5705000      110.24810400    0.00000000
                                                     1        1.7575000        4.19959600    0.00000000
                                                     0        6.7693000        5.00335600    0.00000000
    4         13            3
                                      D and up 
                                                     2        1.2211000       -0.53798100    0.00000000
                                                     2        3.3681000       -5.45975600    0.00000000
                                                     2        9.7500000      -16.65534300    0.00000000
                                                     1       29.2693000       -6.47521500    0.00000000
                                      S - D
                                                     2        1.5631000      -56.20521300    0.00000000
                                                     2        1.7712000      149.68995500    0.00000000
                                                     2        2.0623000      -91.45439400    0.00000000
                                                     1        3.3583000        3.72894900    0.00000000
                                                     0        2.1300000        3.03799400    0.00000000
                                      P - D
                                                     2        1.8231000       93.67560600    0.00000000
                                                     2        2.1249000     -189.88896800    0.00000000
                                                     2        2.5705000      110.24810400    0.00000000
                                                     1        1.7575000        4.19959600    0.00000000
                                                     0        6.7693000        5.00335600    0.00000000
    5         13            3
                                      D and up 
                                                     2        1.2211000       -0.53798100    0.00000000
                                                     2        3.3681000       -5.45975600    0.00000000
                                                     2        9.7500000      -16.65534300    0.00000000
                                                     1       29.2693000       -6.47521500    0.00000000
                                      S - D
                                                     2        1.5631000      -56.20521300    0.00000000
                                                     2        1.7712000      149.68995500    0.00000000
                                                     2        2.0623000      -91.45439400    0.00000000
                                                     1        3.3583000        3.72894900    0.00000000
                                                     0        2.1300000        3.03799400    0.00000000
                                      P - D
                                                     2        1.8231000       93.67560600    0.00000000
                                                     2        2.1249000     -189.88896800    0.00000000
                                                     2        2.5705000      110.24810400    0.00000000
                                                     1        1.7575000        4.19959600    0.00000000
                                                     0        6.7693000        5.00335600    0.00000000
    6         13            3
                                      D and up 
                                                     2        1.2211000       -0.53798100    0.00000000
                                                     2        3.3681000       -5.45975600    0.00000000
                                                     2        9.7500000      -16.65534300    0.00000000
                                                     1       29.2693000       -6.47521500    0.00000000
                                      S - D
                                                     2        1.5631000      -56.20521300    0.00000000
                                                     2        1.7712000      149.68995500    0.00000000
                                                     2        2.0623000      -91.45439400    0.00000000
                                                     1        3.3583000        3.72894900    0.00000000
                                                     0        2.1300000        3.03799400    0.00000000
                                      P - D
                                                     2        1.8231000       93.67560600    0.00000000
                                                     2        2.1249000     -189.88896800    0.00000000
                                                     2        2.5705000      110.24810400    0.00000000
                                                     1        1.7575000        4.19959600    0.00000000
                                                     0        6.7693000        5.00335600    0.00000000
    7         13            3
                                      D and up 
                                                     2        1.2211000       -0.53798100    0.00000000
                                                     2        3.3681000       -5.45975600    0.00000000
                                                     2        9.7500000      -16.65534300    0.00000000
                                                     1       29.2693000       -6.47521500    0.00000000
                                      S - D
                                                     2        1.5631000      -56.20521300    0.00000000
                                                     2        1.7712000      149.68995500    0.00000000
                                                     2        2.0623000      -91.45439400    0.00000000
                                                     1        3.3583000        3.72894900    0.00000000
                                                     0        2.1300000        3.03799400    0.00000000
                                      P - D
                                                     2        1.8231000       93.67560600    0.00000000
                                                     2        2.1249000     -189.88896800    0.00000000
                                                     2        2.5705000      110.24810400    0.00000000
                                                     1        1.7575000        4.19959600    0.00000000
                                                     0        6.7693000        5.00335600    0.00000000
    8         13            3
                                      D and up 
                                                     2        1.2211000       -0.53798100    0.00000000
                                                     2        3.3681000       -5.45975600    0.00000000
                                                     2        9.7500000      -16.65534300    0.00000000
                                                     1       29.2693000       -6.47521500    0.00000000
                                      S - D
                                                     2        1.5631000      -56.20521300    0.00000000
                                                     2        1.7712000      149.68995500    0.00000000
                                                     2        2.0623000      -91.45439400    0.00000000
                                                     1        3.3583000        3.72894900    0.00000000
                                                     0        2.1300000        3.03799400    0.00000000
                                      P - D
                                                     2        1.8231000       93.67560600    0.00000000
                                                     2        2.1249000     -189.88896800    0.00000000
                                                     2        2.5705000      110.24810400    0.00000000
                                                     1        1.7575000        4.19959600    0.00000000
                                                     0        6.7693000        5.00335600    0.00000000
    9         13            3
                                      D and up 
                                                     2        1.2211000       -0.53798100    0.00000000
                                                     2        3.3681000       -5.45975600    0.00000000
                                                     2        9.7500000      -16.65534300    0.00000000
                                                     1       29.2693000       -6.47521500    0.00000000
                                      S - D
                                                     2        1.5631000      -56.20521300    0.00000000
                                                     2        1.7712000      149.68995500    0.00000000
                                                     2        2.0623000      -91.45439400    0.00000000
                                                     1        3.3583000        3.72894900    0.00000000
                                                     0        2.1300000        3.03799400    0.00000000
                                      P - D
                                                     2        1.8231000       93.67560600    0.00000000
                                                     2        2.1249000     -189.88896800    0.00000000
                                                     2        2.5705000      110.24810400    0.00000000
                                                     1        1.7575000        4.19959600    0.00000000
                                                     0        6.7693000        5.00335600    0.00000000
   10         13            3
                                      D and up 
                                                     2        1.2211000       -0.53798100    0.00000000
                                                     2        3.3681000       -5.45975600    0.00000000
                                                     2        9.7500000      -16.65534300    0.00000000
                                                     1       29.2693000       -6.47521500    0.00000000
                                      S - D
                                                     2        1.5631000      -56.20521300    0.00000000
                                                     2        1.7712000      149.68995500    0.00000000
                                                     2        2.0623000      -91.45439400    0.00000000
                                                     1        3.3583000        3.72894900    0.00000000
                                                     0        2.1300000        3.03799400    0.00000000
                                      P - D
                                                     2        1.8231000       93.67560600    0.00000000
                                                     2        2.1249000     -189.88896800    0.00000000
                                                     2        2.5705000      110.24810400    0.00000000
                                                     1        1.7575000        4.19959600    0.00000000
                                                     0        6.7693000        5.00335600    0.00000000
   11         13            3
                                      D and up 
                                                     2        1.2211000       -0.53798100    0.00000000
                                                     2        3.3681000       -5.45975600    0.00000000
                                                     2        9.7500000      -16.65534300    0.00000000
                                                     1       29.2693000       -6.47521500    0.00000000
                                      S - D
                                                     2        1.5631000      -56.20521300    0.00000000
                                                     2        1.7712000      149.68995500    0.00000000
                                                     2        2.0623000      -91.45439400    0.00000000
                                                     1        3.3583000        3.72894900    0.00000000
                                                     0        2.1300000        3.03799400    0.00000000
                                      P - D
                                                     2        1.8231000       93.67560600    0.00000000
                                                     2        2.1249000     -189.88896800    0.00000000
                                                     2        2.5705000      110.24810400    0.00000000
                                                     1        1.7575000        4.19959600    0.00000000
                                                     0        6.7693000        5.00335600    0.00000000
   12         13            3
                                      D and up 
                                                     2        1.2211000       -0.53798100    0.00000000
                                                     2        3.3681000       -5.45975600    0.00000000
                                                     2        9.7500000      -16.65534300    0.00000000
                                                     1       29.2693000       -6.47521500    0.00000000
                                      S - D
                                                     2        1.5631000      -56.20521300    0.00000000
                                                     2        1.7712000      149.68995500    0.00000000
                                                     2        2.0623000      -91.45439400    0.00000000
                                                     1        3.3583000        3.72894900    0.00000000
                                                     0        2.1300000        3.03799400    0.00000000
                                      P - D
                                                     2        1.8231000       93.67560600    0.00000000
                                                     2        2.1249000     -189.88896800    0.00000000
                                                     2        2.5705000      110.24810400    0.00000000
                                                     1        1.7575000        4.19959600    0.00000000
                                                     0        6.7693000        5.00335600    0.00000000
   13         13            3
                                      D and up 
                                                     2        1.2211000       -0.53798100    0.00000000
                                                     2        3.3681000       -5.45975600    0.00000000
                                                     2        9.7500000      -16.65534300    0.00000000
                                                     1       29.2693000       -6.47521500    0.00000000
                                      S - D
                                                     2        1.5631000      -56.20521300    0.00000000
                                                     2        1.7712000      149.68995500    0.00000000
                                                     2        2.0623000      -91.45439400    0.00000000
                                                     1        3.3583000        3.72894900    0.00000000
                                                     0        2.1300000        3.03799400    0.00000000
                                      P - D
                                                     2        1.8231000       93.67560600    0.00000000
                                                     2        2.1249000     -189.88896800    0.00000000
                                                     2        2.5705000      110.24810400    0.00000000
                                                     1        1.7575000        4.19959600    0.00000000
                                                     0        6.7693000        5.00335600    0.00000000
   14         13            3
                                      D and up 
                                                     2        1.2211000       -0.53798100    0.00000000
                                                     2        3.3681000       -5.45975600    0.00000000
                                                     2        9.7500000      -16.65534300    0.00000000
                                                     1       29.2693000       -6.47521500    0.00000000
                                      S - D
                                                     2        1.5631000      -56.20521300    0.00000000
                                                     2        1.7712000      149.68995500    0.00000000
                                                     2        2.0623000      -91.45439400    0.00000000
                                                     1        3.3583000        3.72894900    0.00000000
                                                     0        2.1300000        3.03799400    0.00000000
                                      P - D
                                                     2        1.8231000       93.67560600    0.00000000
                                                     2        2.1249000     -189.88896800    0.00000000
                                                     2        2.5705000      110.24810400    0.00000000
                                                     1        1.7575000        4.19959600    0.00000000
                                                     0        6.7693000        5.00335600    0.00000000
   15         13            3
                                      D and up 
                                                     2        1.2211000       -0.53798100    0.00000000
                                                     2        3.3681000       -5.45975600    0.00000000
                                                     2        9.7500000      -16.65534300    0.00000000
                                                     1       29.2693000       -6.47521500    0.00000000
                                      S - D
                                                     2        1.5631000      -56.20521300    0.00000000
                                                     2        1.7712000      149.68995500    0.00000000
                                                     2        2.0623000      -91.45439400    0.00000000
                                                     1        3.3583000        3.72894900    0.00000000
                                                     0        2.1300000        3.03799400    0.00000000
                                      P - D
                                                     2        1.8231000       93.67560600    0.00000000
                                                     2        2.1249000     -189.88896800    0.00000000
                                                     2        2.5705000      110.24810400    0.00000000
                                                     1        1.7575000        4.19959600    0.00000000
                                                     0        6.7693000        5.00335600    0.00000000
   16         13            3
                                      D and up 
                                                     2        1.2211000       -0.53798100    0.00000000
                                                     2        3.3681000       -5.45975600    0.00000000
                                                     2        9.7500000      -16.65534300    0.00000000
                                                     1       29.2693000       -6.47521500    0.00000000
                                      S - D
                                                     2        1.5631000      -56.20521300    0.00000000
                                                     2        1.7712000      149.68995500    0.00000000
                                                     2        2.0623000      -91.45439400    0.00000000
                                                     1        3.3583000        3.72894900    0.00000000
                                                     0        2.1300000        3.03799400    0.00000000
                                      P - D
                                                     2        1.8231000       93.67560600    0.00000000
                                                     2        2.1249000     -189.88896800    0.00000000
                                                     2        2.5705000      110.24810400    0.00000000
                                                     1        1.7575000        4.19959600    0.00000000
                                                     0        6.7693000        5.00335600    0.00000000
   17         13            3
                                      D and up 
                                                     2        1.2211000       -0.53798100    0.00000000
                                                     2        3.3681000       -5.45975600    0.00000000
                                                     2        9.7500000      -16.65534300    0.00000000
                                                     1       29.2693000       -6.47521500    0.00000000
                                      S - D
                                                     2        1.5631000      -56.20521300    0.00000000
                                                     2        1.7712000      149.68995500    0.00000000
                                                     2        2.0623000      -91.45439400    0.00000000
                                                     1        3.3583000        3.72894900    0.00000000
                                                     0        2.1300000        3.03799400    0.00000000
                                      P - D
                                                     2        1.8231000       93.67560600    0.00000000
                                                     2        2.1249000     -189.88896800    0.00000000
                                                     2        2.5705000      110.24810400    0.00000000
                                                     1        1.7575000        4.19959600    0.00000000
                                                     0        6.7693000        5.00335600    0.00000000
   18         13            3
                                      D and up 
                                                     2        1.2211000       -0.53798100    0.00000000
                                                     2        3.3681000       -5.45975600    0.00000000
                                                     2        9.7500000      -16.65534300    0.00000000
                                                     1       29.2693000       -6.47521500    0.00000000
                                      S - D
                                                     2        1.5631000      -56.20521300    0.00000000
                                                     2        1.7712000      149.68995500    0.00000000
                                                     2        2.0623000      -91.45439400    0.00000000
                                                     1        3.3583000        3.72894900    0.00000000
                                                     0        2.1300000        3.03799400    0.00000000
                                      P - D
                                                     2        1.8231000       93.67560600    0.00000000
                                                     2        2.1249000     -189.88896800    0.00000000
                                                     2        2.5705000      110.24810400    0.00000000
                                                     1        1.7575000        4.19959600    0.00000000
                                                     0        6.7693000        5.00335600    0.00000000
   19         13            3
                                      D and up 
                                                     2        1.2211000       -0.53798100    0.00000000
                                                     2        3.3681000       -5.45975600    0.00000000
                                                     2        9.7500000      -16.65534300    0.00000000
                                                     1       29.2693000       -6.47521500    0.00000000
                                      S - D
                                                     2        1.5631000      -56.20521300    0.00000000
                                                     2        1.7712000      149.68995500    0.00000000
                                                     2        2.0623000      -91.45439400    0.00000000
                                                     1        3.3583000        3.72894900    0.00000000
                                                     0        2.1300000        3.03799400    0.00000000
                                      P - D
                                                     2        1.8231000       93.67560600    0.00000000
                                                     2        2.1249000     -189.88896800    0.00000000
                                                     2        2.5705000      110.24810400    0.00000000
                                                     1        1.7575000        4.19959600    0.00000000
                                                     0        6.7693000        5.00335600    0.00000000
   20         13            3
                                      D and up 
                                                     2        1.2211000       -0.53798100    0.00000000
                                                     2        3.3681000       -5.45975600    0.00000000
                                                     2        9.7500000      -16.65534300    0.00000000
                                                     1       29.2693000       -6.47521500    0.00000000
                                      S - D
                                                     2        1.5631000      -56.20521300    0.00000000
                                                     2        1.7712000      149.68995500    0.00000000
                                                     2        2.0623000      -91.45439400    0.00000000
                                                     1        3.3583000        3.72894900    0.00000000
                                                     0        2.1300000        3.03799400    0.00000000
                                      P - D
                                                     2        1.8231000       93.67560600    0.00000000
                                                     2        2.1249000     -189.88896800    0.00000000
                                                     2        2.5705000      110.24810400    0.00000000
                                                     1        1.7575000        4.19959600    0.00000000
                                                     0        6.7693000        5.00335600    0.00000000
   21          6
                                   No pseudopotential on this center.
   22          6
                                   No pseudopotential on this center.
   23          6
                                   No pseudopotential on this center.
   24          6
                                   No pseudopotential on this center.
   25          6
                                   No pseudopotential on this center.
   26          6
                                   No pseudopotential on this center.
   27          1
                                   No pseudopotential on this center.
   28          1
                                   No pseudopotential on this center.
   29          1
                                   No pseudopotential on this center.
   30          1
                                   No pseudopotential on this center.
   31          1
                                   No pseudopotential on this center.
   32          1
                                   No pseudopotential on this center.
   33         13            3
                                      D and up 
                                                     2        1.2211000       -0.53798100    0.00000000
                                                     2        3.3681000       -5.45975600    0.00000000
                                                     2        9.7500000      -16.65534300    0.00000000
                                                     1       29.2693000       -6.47521500    0.00000000
                                      S - D
                                                     2        1.5631000      -56.20521300    0.00000000
                                                     2        1.7712000      149.68995500    0.00000000
                                                     2        2.0623000      -91.45439400    0.00000000
                                                     1        3.3583000        3.72894900    0.00000000
                                                     0        2.1300000        3.03799400    0.00000000
                                      P - D
                                                     2        1.8231000       93.67560600    0.00000000
                                                     2        2.1249000     -189.88896800    0.00000000
                                                     2        2.5705000      110.24810400    0.00000000
                                                     1        1.7575000        4.19959600    0.00000000
                                                     0        6.7693000        5.00335600    0.00000000
   34         13            3
                                      D and up 
                                                     2        1.2211000       -0.53798100    0.00000000
                                                     2        3.3681000       -5.45975600    0.00000000
                                                     2        9.7500000      -16.65534300    0.00000000
                                                     1       29.2693000       -6.47521500    0.00000000
                                      S - D
                                                     2        1.5631000      -56.20521300    0.00000000
                                                     2        1.7712000      149.68995500    0.00000000
                                                     2        2.0623000      -91.45439400    0.00000000
                                                     1        3.3583000        3.72894900    0.00000000
                                                     0        2.1300000        3.03799400    0.00000000
                                      P - D
                                                     2        1.8231000       93.67560600    0.00000000
                                                     2        2.1249000     -189.88896800    0.00000000
                                                     2        2.5705000      110.24810400    0.00000000
                                                     1        1.7575000        4.19959600    0.00000000
                                                     0        6.7693000        5.00335600    0.00000000
   35         13            3
                                      D and up 
                                                     2        1.2211000       -0.53798100    0.00000000
                                                     2        3.3681000       -5.45975600    0.00000000
                                                     2        9.7500000      -16.65534300    0.00000000
                                                     1       29.2693000       -6.47521500    0.00000000
                                      S - D
                                                     2        1.5631000      -56.20521300    0.00000000
                                                     2        1.7712000      149.68995500    0.00000000
                                                     2        2.0623000      -91.45439400    0.00000000
                                                     1        3.3583000        3.72894900    0.00000000
                                                     0        2.1300000        3.03799400    0.00000000
                                      P - D
                                                     2        1.8231000       93.67560600    0.00000000
                                                     2        2.1249000     -189.88896800    0.00000000
                                                     2        2.5705000      110.24810400    0.00000000
                                                     1        1.7575000        4.19959600    0.00000000
                                                     0        6.7693000        5.00335600    0.00000000
   36         13            3
                                      D and up 
                                                     2        1.2211000       -0.53798100    0.00000000
                                                     2        3.3681000       -5.45975600    0.00000000
                                                     2        9.7500000      -16.65534300    0.00000000
                                                     1       29.2693000       -6.47521500    0.00000000
                                      S - D
                                                     2        1.5631000      -56.20521300    0.00000000
                                                     2        1.7712000      149.68995500    0.00000000
                                                     2        2.0623000      -91.45439400    0.00000000
                                                     1        3.3583000        3.72894900    0.00000000
                                                     0        2.1300000        3.03799400    0.00000000
                                      P - D
                                                     2        1.8231000       93.67560600    0.00000000
                                                     2        2.1249000     -189.88896800    0.00000000
                                                     2        2.5705000      110.24810400    0.00000000
                                                     1        1.7575000        4.19959600    0.00000000
                                                     0        6.7693000        5.00335600    0.00000000
   37         13            3
                                      D and up 
                                                     2        1.2211000       -0.53798100    0.00000000
                                                     2        3.3681000       -5.45975600    0.00000000
                                                     2        9.7500000      -16.65534300    0.00000000
                                                     1       29.2693000       -6.47521500    0.00000000
                                      S - D
                                                     2        1.5631000      -56.20521300    0.00000000
                                                     2        1.7712000      149.68995500    0.00000000
                                                     2        2.0623000      -91.45439400    0.00000000
                                                     1        3.3583000        3.72894900    0.00000000
                                                     0        2.1300000        3.03799400    0.00000000
                                      P - D
                                                     2        1.8231000       93.67560600    0.00000000
                                                     2        2.1249000     -189.88896800    0.00000000
                                                     2        2.5705000      110.24810400    0.00000000
                                                     1        1.7575000        4.19959600    0.00000000
                                                     0        6.7693000        5.00335600    0.00000000
   38         13            3
                                      D and up 
                                                     2        1.2211000       -0.53798100    0.00000000
                                                     2        3.3681000       -5.45975600    0.00000000
                                                     2        9.7500000      -16.65534300    0.00000000
                                                     1       29.2693000       -6.47521500    0.00000000
                                      S - D
                                                     2        1.5631000      -56.20521300    0.00000000
                                                     2        1.7712000      149.68995500    0.00000000
                                                     2        2.0623000      -91.45439400    0.00000000
                                                     1        3.3583000        3.72894900    0.00000000
                                                     0        2.1300000        3.03799400    0.00000000
                                      P - D
                                                     2        1.8231000       93.67560600    0.00000000
                                                     2        2.1249000     -189.88896800    0.00000000
                                                     2        2.5705000      110.24810400    0.00000000
                                                     1        1.7575000        4.19959600    0.00000000
                                                     0        6.7693000        5.00335600    0.00000000
   39         13            3
                                      D and up 
                                                     2        1.2211000       -0.53798100    0.00000000
                                                     2        3.3681000       -5.45975600    0.00000000
                                                     2        9.7500000      -16.65534300    0.00000000
                                                     1       29.2693000       -6.47521500    0.00000000
                                      S - D
                                                     2        1.5631000      -56.20521300    0.00000000
                                                     2        1.7712000      149.68995500    0.00000000
                                                     2        2.0623000      -91.45439400    0.00000000
                                                     1        3.3583000        3.72894900    0.00000000
                                                     0        2.1300000        3.03799400    0.00000000
                                      P - D
                                                     2        1.8231000       93.67560600    0.00000000
                                                     2        2.1249000     -189.88896800    0.00000000
                                                     2        2.5705000      110.24810400    0.00000000
                                                     1        1.7575000        4.19959600    0.00000000
                                                     0        6.7693000        5.00335600    0.00000000
   40         13            3
                                      D and up 
                                                     2        1.2211000       -0.53798100    0.00000000
                                                     2        3.3681000       -5.45975600    0.00000000
                                                     2        9.7500000      -16.65534300    0.00000000
                                                     1       29.2693000       -6.47521500    0.00000000
                                      S - D
                                                     2        1.5631000      -56.20521300    0.00000000
                                                     2        1.7712000      149.68995500    0.00000000
                                                     2        2.0623000      -91.45439400    0.00000000
                                                     1        3.3583000        3.72894900    0.00000000
                                                     0        2.1300000        3.03799400    0.00000000
                                      P - D
                                                     2        1.8231000       93.67560600    0.00000000
                                                     2        2.1249000     -189.88896800    0.00000000
                                                     2        2.5705000      110.24810400    0.00000000
                                                     1        1.7575000        4.19959600    0.00000000
                                                     0        6.7693000        5.00335600    0.00000000
   41         13            3
                                      D and up 
                                                     2        1.2211000       -0.53798100    0.00000000
                                                     2        3.3681000       -5.45975600    0.00000000
                                                     2        9.7500000      -16.65534300    0.00000000
                                                     1       29.2693000       -6.47521500    0.00000000
                                      S - D
                                                     2        1.5631000      -56.20521300    0.00000000
                                                     2        1.7712000      149.68995500    0.00000000
                                                     2        2.0623000      -91.45439400    0.00000000
                                                     1        3.3583000        3.72894900    0.00000000
                                                     0        2.1300000        3.03799400    0.00000000
                                      P - D
                                                     2        1.8231000       93.67560600    0.00000000
                                                     2        2.1249000     -189.88896800    0.00000000
                                                     2        2.5705000      110.24810400    0.00000000
                                                     1        1.7575000        4.19959600    0.00000000
                                                     0        6.7693000        5.00335600    0.00000000
   42         13            3
                                      D and up 
                                                     2        1.2211000       -0.53798100    0.00000000
                                                     2        3.3681000       -5.45975600    0.00000000
                                                     2        9.7500000      -16.65534300    0.00000000
                                                     1       29.2693000       -6.47521500    0.00000000
                                      S - D
                                                     2        1.5631000      -56.20521300    0.00000000
                                                     2        1.7712000      149.68995500    0.00000000
                                                     2        2.0623000      -91.45439400    0.00000000
                                                     1        3.3583000        3.72894900    0.00000000
                                                     0        2.1300000        3.03799400    0.00000000
                                      P - D
                                                     2        1.8231000       93.67560600    0.00000000
                                                     2        2.1249000     -189.88896800    0.00000000
                                                     2        2.5705000      110.24810400    0.00000000
                                                     1        1.7575000        4.19959600    0.00000000
                                                     0        6.7693000        5.00335600    0.00000000
   43         13            3
                                      D and up 
                                                     2        1.2211000       -0.53798100    0.00000000
                                                     2        3.3681000       -5.45975600    0.00000000
                                                     2        9.7500000      -16.65534300    0.00000000
                                                     1       29.2693000       -6.47521500    0.00000000
                                      S - D
                                                     2        1.5631000      -56.20521300    0.00000000
                                                     2        1.7712000      149.68995500    0.00000000
                                                     2        2.0623000      -91.45439400    0.00000000
                                                     1        3.3583000        3.72894900    0.00000000
                                                     0        2.1300000        3.03799400    0.00000000
                                      P - D
                                                     2        1.8231000       93.67560600    0.00000000
                                                     2        2.1249000     -189.88896800    0.00000000
                                                     2        2.5705000      110.24810400    0.00000000
                                                     1        1.7575000        4.19959600    0.00000000
                                                     0        6.7693000        5.00335600    0.00000000
   44         13            3
                                      D and up 
                                                     2        1.2211000       -0.53798100    0.00000000
                                                     2        3.3681000       -5.45975600    0.00000000
                                                     2        9.7500000      -16.65534300    0.00000000
                                                     1       29.2693000       -6.47521500    0.00000000
                                      S - D
                                                     2        1.5631000      -56.20521300    0.00000000
                                                     2        1.7712000      149.68995500    0.00000000
                                                     2        2.0623000      -91.45439400    0.00000000
                                                     1        3.3583000        3.72894900    0.00000000
                                                     0        2.1300000        3.03799400    0.00000000
                                      P - D
                                                     2        1.8231000       93.67560600    0.00000000
                                                     2        2.1249000     -189.88896800    0.00000000
                                                     2        2.5705000      110.24810400    0.00000000
                                                     1        1.7575000        4.19959600    0.00000000
                                                     0        6.7693000        5.00335600    0.00000000
   45         13            3
                                      D and up 
                                                     2        1.2211000       -0.53798100    0.00000000
                                                     2        3.3681000       -5.45975600    0.00000000
                                                     2        9.7500000      -16.65534300    0.00000000
                                                     1       29.2693000       -6.47521500    0.00000000
                                      S - D
                                                     2        1.5631000      -56.20521300    0.00000000
                                                     2        1.7712000      149.68995500    0.00000000
                                                     2        2.0623000      -91.45439400    0.00000000
                                                     1        3.3583000        3.72894900    0.00000000
                                                     0        2.1300000        3.03799400    0.00000000
                                      P - D
                                                     2        1.8231000       93.67560600    0.00000000
                                                     2        2.1249000     -189.88896800    0.00000000
                                                     2        2.5705000      110.24810400    0.00000000
                                                     1        1.7575000        4.19959600    0.00000000
                                                     0        6.7693000        5.00335600    0.00000000
   46         13            3
                                      D and up 
                                                     2        1.2211000       -0.53798100    0.00000000
                                                     2        3.3681000       -5.45975600    0.00000000
                                                     2        9.7500000      -16.65534300    0.00000000
                                                     1       29.2693000       -6.47521500    0.00000000
                                      S - D
                                                     2        1.5631000      -56.20521300    0.00000000
                                                     2        1.7712000      149.68995500    0.00000000
                                                     2        2.0623000      -91.45439400    0.00000000
                                                     1        3.3583000        3.72894900    0.00000000
                                                     0        2.1300000        3.03799400    0.00000000
                                      P - D
                                                     2        1.8231000       93.67560600    0.00000000
                                                     2        2.1249000     -189.88896800    0.00000000
                                                     2        2.5705000      110.24810400    0.00000000
                                                     1        1.7575000        4.19959600    0.00000000
                                                     0        6.7693000        5.00335600    0.00000000
   47         13            3
                                      D and up 
                                                     2        1.2211000       -0.53798100    0.00000000
                                                     2        3.3681000       -5.45975600    0.00000000
                                                     2        9.7500000      -16.65534300    0.00000000
                                                     1       29.2693000       -6.47521500    0.00000000
                                      S - D
                                                     2        1.5631000      -56.20521300    0.00000000
                                                     2        1.7712000      149.68995500    0.00000000
                                                     2        2.0623000      -91.45439400    0.00000000
                                                     1        3.3583000        3.72894900    0.00000000
                                                     0        2.1300000        3.03799400    0.00000000
                                      P - D
                                                     2        1.8231000       93.67560600    0.00000000
                                                     2        2.1249000     -189.88896800    0.00000000
                                                     2        2.5705000      110.24810400    0.00000000
                                                     1        1.7575000        4.19959600    0.00000000
                                                     0        6.7693000        5.00335600    0.00000000
   48         13            3
                                      D and up 
                                                     2        1.2211000       -0.53798100    0.00000000
                                                     2        3.3681000       -5.45975600    0.00000000
                                                     2        9.7500000      -16.65534300    0.00000000
                                                     1       29.2693000       -6.47521500    0.00000000
                                      S - D
                                                     2        1.5631000      -56.20521300    0.00000000
                                                     2        1.7712000      149.68995500    0.00000000
                                                     2        2.0623000      -91.45439400    0.00000000
                                                     1        3.3583000        3.72894900    0.00000000
                                                     0        2.1300000        3.03799400    0.00000000
                                      P - D
                                                     2        1.8231000       93.67560600    0.00000000
                                                     2        2.1249000     -189.88896800    0.00000000
                                                     2        2.5705000      110.24810400    0.00000000
                                                     1        1.7575000        4.19959600    0.00000000
                                                     0        6.7693000        5.00335600    0.00000000
   49         13            3
                                      D and up 
                                                     2        1.2211000       -0.53798100    0.00000000
                                                     2        3.3681000       -5.45975600    0.00000000
                                                     2        9.7500000      -16.65534300    0.00000000
                                                     1       29.2693000       -6.47521500    0.00000000
                                      S - D
                                                     2        1.5631000      -56.20521300    0.00000000
                                                     2        1.7712000      149.68995500    0.00000000
                                                     2        2.0623000      -91.45439400    0.00000000
                                                     1        3.3583000        3.72894900    0.00000000
                                                     0        2.1300000        3.03799400    0.00000000
                                      P - D
                                                     2        1.8231000       93.67560600    0.00000000
[...]
 Integration of P has needed a max no. of loops  16
 Integration of P has needed a max no. of loops  16
 Integration of P has needed a max no. of loops  16
 -----------------------------------------------
 Fermi energy=  -6.14425  +/-  0.00000
 
 Number of alpha electrons:   81.00000
 Number of beta electrons:    81.00000
 Total number of electrons:   162.00000
 -----------------------------------------------
 Pulay kick .............
 RMSDP=2.27D-03 MaxDP=3.60D-02 DE= 6.10D-03 OVMax= 5.71D-01

 Cycle  57  Pass 1  IDiag  1:
 E= -299.720331176853     Delta-E=        0.276672040573 Rises=F Damp=F
 -------------------------------------------------------------------------
 Computing the density matrix at cycle:                       57
 -------------------------------------------------------------------------
 EMin=   -522.6706766054242     
 EMax=    522.6706766054242     
 MULLER method
 Integration of P has needed a max no. of loops  16
 Integration of P has needed a max no. of loops  16
 Integration of P has needed a max no. of loops  16
 Integration of P has needed a max no. of loops  16
 Integration of P has needed a max no. of loops  16
 -----------------------------------------------
 Fermi energy=  -6.16598  +/-  0.00003
 
 Number of alpha electrons:   81.00000
 Number of beta electrons:    81.00000
 Total number of electrons:   162.00000
 -----------------------------------------------
 RMSDP=1.10D-05 MaxDP=1.99D-04 DE= 2.77D-01 OVMax= 5.71D-01

 Cycle  58  Pass 1  IDiag  1:
 E= -299.719787772016     Delta-E=        0.000543404837 Rises=F Damp=F
 -------------------------------------------------------------------------
 Computing the density matrix at cycle:                       58
 -------------------------------------------------------------------------
 EMin=   -522.6685413356186     
 EMax=    522.6685413356186     
 --------------
 Charge Control
 --------------
 Searching energy boundaries [EMin, EMax] such that
 Total Integrated Spectral Weight (TISW)= 392
 EMin=  -522.66854  EMax=   522.66854  TISW= 391.99998
 --------------------------------------------------
 MULLER method
 Integration of P has needed a max no. of loops  16
 Integration of P has needed a max no. of loops  16
 Integration of P has needed a max no. of loops  16
 Integration of P has needed a max no. of loops  16
 Integration of P has needed a max no. of loops  16
 -----------------------------------------------
 Fermi energy=  -6.16667  +/-  0.00000
 
 Number of alpha electrons:   81.00000
 Number of beta electrons:    81.00000
 Total number of electrons:   162.00000
 -----------------------------------------------
 RMSDP=1.04D-05 MaxDP=1.99D-04 DE= 5.43D-04 OVMax= 5.71D-01

 Cycle  59  Pass 1  IDiag  1:
 E= -299.719261720132     Delta-E=        0.000526051884 Rises=F Damp=F
 -------------------------------------------------------------------------
 Computing the density matrix at cycle:                       59
 -------------------------------------------------------------------------
 EMin=   -522.6705584486417     
 EMax=    522.6705584486417     
 MULLER method
 Integration of P has needed a max no. of loops  16
 Integration of P has needed a max no. of loops  16
 Integration of P has needed a max no. of loops  16
 Integration of P has needed a max no. of loops  16
 Integration of P has needed a max no. of loops  16
 -----------------------------------------------
 Fermi energy=  -6.16707  +/-  0.00000
 
 Number of alpha electrons:   81.00000
 Number of beta electrons:    81.00000
 Total number of electrons:   162.00000
 -----------------------------------------------
 RMSDP=9.96D-06 MaxDP=1.95D-04 DE= 5.26D-04 OVMax= 5.71D-01

 Density matrix is not changing but DIIS error= 2.10D-02 CofLast= 6.25D-04.
 SCF Done:  E(RB-LYP) =  -299.719261720     A.U. after   59 cycles
            NFock= 59  Conv=0.10D-04     -V/T= 2.1308
 KE= 2.650584967929D+02 PE=-3.213858222278D+03 EE= 1.363501461943D+03
 -------------------------------------------------------------------------
 Computing the density matrix at cycle:                     1000
 -------------------------------------------------------------------------
 EMin=   -522.6705584486417     
 EMax=    522.6705584486417     
 MULLER method
 Integration of P has needed a max no. of loops  16
 Integration of P has needed a max no. of loops  16
 Integration of P has needed a max no. of loops  16
 Integration of P has needed a max no. of loops  16
 Integration of P has needed a max no. of loops  16
 -----------------------------------------------
 Fermi energy=  -6.16707  +/-  0.00000
 
 Number of alpha electrons:   81.00000
 Number of beta electrons:    81.00000
 Total number of electrons:   162.00000
 -----------------------------------------------
 
 ****************************************** 
 *                                        * 
 *        ANT.G09 final analysis          * 
 *                                        * 
 ****************************************** 
 
 -------------------------------------
 ---  Self-consistent Hamiltonian  ---
 -------------------------------------
 ---------
 Left lead
 ---------
 Atom:   1   -6.716220
 Atom:   2   -8.856244
 Atom:   3   -8.852127
 Atom:   4   -6.724559
 Atom:   5   -8.856471
 Atom:   6  -11.073615
 Atom:   7   -8.857530
 Atom:   8   -8.848513
 Atom:   9   -8.853535
 Atom:  10   -6.722571
 Atom:  11   -9.330252
 Atom:  12  -11.682829
 Atom:  13   -9.329927
 Atom:  14  -11.685199
 Atom:  15  -11.664188
 Atom:  16   -9.323085
 Atom:  17  -10.201972
 Atom:  18  -10.184192
 Atom:  19  -10.189917
 Atom:  20  -15.319327
 --------
 Molecule
 --------
 Atom:  21  -70.562578
 Atom:  22  -70.328421
 Atom:  23  -70.589459
 Atom:  24  -70.310484
 Atom:  25  -70.551911
 Atom:  26  -70.294132
 Atom:  27  -13.176456
 Atom:  28  -13.050987
 Atom:  29  -13.192220
 Atom:  30  -13.040233
 Atom:  31  -13.167151
 Atom:  32  -13.031738
 ----------
 Right lead
 ----------
 Atom:  33  -15.317025
 Atom:  34  -10.180975
 Atom:  35  -10.199769
 Atom:  36  -10.190654
 Atom:  37   -9.328541
 Atom:  38  -11.657466
 Atom:  39   -9.331331
 Atom:  40  -11.675118
 Atom:  41  -11.701952
 Atom:  42   -9.341480
 Atom:  43   -6.734745
 Atom:  44   -8.855091
 Atom:  45   -8.853261
 Atom:  46   -6.717711
 Atom:  47   -8.846780
 Atom:  48  -11.071055
 Atom:  49   -8.845310
 Atom:  50   -8.854481
 Atom:  51   -8.852957
 Atom:  52   -6.698074
 
 --------------------------------
 --- Calculating Transmission ---
 ---  (and DOS if required)   ---
 --------------------------------
 
 -------------------------------------
 ---  Mulliken population analysis ---
 -------------------------------------
 ----------------------
 Charges in electrode 1
 ----------------------
 Atom:   1  El.dens:  3.0892
 Atom:   2  El.dens:  3.0626
 Atom:   3  El.dens:  3.0553
 Atom:   4  El.dens:  3.0965
 Atom:   5  El.dens:  3.0618
 Atom:   6  El.dens:  3.0005
 Atom:   7  El.dens:  3.0669
 Atom:   8  El.dens:  3.0529
 Atom:   9  El.dens:  3.0652
 Atom:  10  El.dens:  3.0966
 Atom:  11  El.dens:  2.9674
 Atom:  12  El.dens:  2.8838
 Atom:  13  El.dens:  2.9734
 Atom:  14  El.dens:  2.8868
 Atom:  15  El.dens:  2.8678
 Atom:  16  El.dens:  2.9680
 Atom:  17  El.dens:  3.0245
 Atom:  18  El.dens:  3.0167
 Atom:  19  El.dens:  3.0183
 Atom:  20  El.dens:  3.0387
 ----------------------------------------------------
 Total num. of electrons in electrode 1:    60.29284007363665     
 ----------------------------------------------------
 -------------------
 Charges in molecule
 -------------------
 Atom:  21  El.dens:  6.0905
 Atom:  22  El.dens:  6.1413
 Atom:  23  El.dens:  6.0956
 Atom:  24  El.dens:  6.1331
 Atom:  25  El.dens:  6.0889
 Atom:  26  El.dens:  6.1311
 Atom:  27  El.dens:  0.7866
 Atom:  28  El.dens:  0.7968
 Atom:  29  El.dens:  0.7860
 Atom:  30  El.dens:  0.7972
 Atom:  31  El.dens:  0.7867
 Atom:  32  El.dens:  0.7976
 ----------------------------------------------------
 Total num. of electrons in molecule:    41.43124837582589     
 ----------------------------------------------------
 ----------------------
 Charges in electrode 2
 ----------------------
 Atom:  33  El.dens:  3.0325
 Atom:  34  El.dens:  3.0191
 Atom:  35  El.dens:  3.0213
 Atom:  36  El.dens:  3.0164
 Atom:  37  El.dens:  2.9779
 Atom:  38  El.dens:  2.8605
 Atom:  39  El.dens:  2.9760
 Atom:  40  El.dens:  2.8769
 Atom:  41  El.dens:  2.9005
 Atom:  42  El.dens:  2.9785
 Atom:  43  El.dens:  3.1068
 Atom:  44  El.dens:  3.0671
 Atom:  45  El.dens:  3.0677
 Atom:  46  El.dens:  3.0922
 Atom:  47  El.dens:  3.0525
 Atom:  48  El.dens:  2.9997
 Atom:  49  El.dens:  3.0452
 Atom:  50  El.dens:  3.0628
 Atom:  51  El.dens:  3.0524
 Atom:  52  El.dens:  3.0697
 ----------------------------------------------------
 Total num. of electrons in electrode 2:    60.27591155053764     
 ----------------------------------------------------
  ----------------- End of ANT.G09 ------------------- 
 Leave Link  502 at Fri Feb 12 12:19:57 2016, MaxMem=   262144000 cpu:      1281.4
 (Enter /home/palacios/gaussian/g09/l601.exe)
 Copying SCF densities to generalized density rwf, IOpCl= 0 IROHF=0.

 **********************************************************************

            Population analysis using the SCF density.

 **********************************************************************

 Orbital symmetries:
       Occupied  (A) (A) (A) (A) (A) (A) (A) (A) (A) (A) (A) (A)
                 (A) (A) (A) (A) (A) (A) (A) (A) (A) (A) (A) (A)
                 (A) (A) (A) (A) (A) (A) (A) (A) (A) (A) (A) (A)
                 (A) (A) (A) (A) (A) (A) (A) (A) (A) (A) (A) (A)
                 (A) (A) (A) (A) (A) (A) (A) (A) (A) (A) (A) (A)
                 (A) (A) (A) (A) (A) (A) (A) (A) (A) (A) (A) (A)
                 (A) (A) (A) (A) (A) (A) (A) (A) (A)
       Virtual   (A) (A) (A) (A) (A) (A) (A) (A) (A) (A) (A) (A)
                 (A) (A) (A) (A) (A) (A) (A) (A) (A) (A) (A) (A)
                 (A) (A) (A) (A) (A) (A) (A) (A) (A) (A) (A) (A)
                 (A) (A) (A) (A) (A) (A) (A) (A) (A) (A) (A) (A)
                 (A) (A) (A) (A) (A) (A) (A) (A) (A) (A) (A) (A)
                 (A) (A) (A) (A) (A) (A) (A) (A) (A) (A) (A) (A)
                 (A) (A) (A) (A) (A) (A) (A) (A) (A) (A) (A) (A)
                 (A) (A) (A) (A) (A) (A) (A) (A) (A) (A) (A) (A)
                 (A) (A) (A) (A) (A) (A) (A) (A) (A) (A) (A) (A)
                 (A) (A) (A) (A) (A) (A) (A)
 The electronic state is 1-A.
 Alpha  occ. eigenvalues --   -9.97783  -9.97742  -9.97626  -9.96511  -9.96482
 Alpha  occ. eigenvalues --   -9.96416  -1.01488  -0.86838  -0.86821  -0.69491
 Alpha  occ. eigenvalues --   -0.69489  -0.66743  -0.66522  -0.62407  -0.61931
 Alpha  occ. eigenvalues --   -0.59406  -0.59325  -0.59188  -0.59176  -0.59136
 Alpha  occ. eigenvalues --   -0.57904  -0.55252  -0.53811  -0.53792  -0.53458
 Alpha  occ. eigenvalues --   -0.50539  -0.49369  -0.49008  -0.48548  -0.48404
 Alpha  occ. eigenvalues --   -0.48378  -0.48371  -0.47975  -0.47665  -0.47594
 Alpha  occ. eigenvalues --   -0.47443  -0.47420  -0.45734  -0.45710  -0.44917
 Alpha  occ. eigenvalues --   -0.44913  -0.37466  -0.37182  -0.37058  -0.36985
 Alpha  occ. eigenvalues --   -0.36918  -0.36529  -0.35937  -0.35303  -0.34119
 Alpha  occ. eigenvalues --   -0.34043  -0.33853  -0.33801  -0.33527  -0.33472
 Alpha  occ. eigenvalues --   -0.30139  -0.30016  -0.29993  -0.29916  -0.29875
 Alpha  occ. eigenvalues --   -0.29850  -0.25538  -0.25438  -0.24678  -0.24626
 Alpha  occ. eigenvalues --   -0.24591  -0.24555  -0.24282  -0.24223  -0.24080
 Alpha  occ. eigenvalues --   -0.23963  -0.23140  -0.22591  -0.21777  -0.21732
 Alpha  occ. eigenvalues --   -0.21432  -0.21411  -0.21340  -0.21293  -0.21002
 Alpha  occ. eigenvalues --   -0.20938
 Alpha virt. eigenvalues --   -0.20859  -0.20846  -0.20785  -0.20732  -0.20508
 Alpha virt. eigenvalues --   -0.20438  -0.19243  -0.18843  -0.18374  -0.18368
 Alpha virt. eigenvalues --   -0.15459  -0.11894  -0.10048  -0.09965  -0.09873
 Alpha virt. eigenvalues --   -0.09856  -0.07884  -0.07550  -0.07317  -0.07268
 Alpha virt. eigenvalues --   -0.07245  -0.07211  -0.07035  -0.06911  -0.06723
 Alpha virt. eigenvalues --   -0.06633  -0.06011  -0.05546  -0.05535  -0.05490
 Alpha virt. eigenvalues --   -0.05468  -0.05335  -0.05301  -0.05252  -0.05144
 Alpha virt. eigenvalues --   -0.04753  -0.04727  -0.04353  -0.03899  -0.03879
 Alpha virt. eigenvalues --   -0.02462  -0.02062  -0.01750  -0.01658  -0.00446
 Alpha virt. eigenvalues --   -0.00404   0.01170   0.03539   0.03618   0.03809
 Alpha virt. eigenvalues --    0.03888   0.04121   0.04148   0.05599   0.05688
 Alpha virt. eigenvalues --    0.05787   0.05931   0.05990   0.06112   0.06377
 Alpha virt. eigenvalues --    0.06506   0.08292   0.08366   0.10320   0.10423
 Alpha virt. eigenvalues --    0.10708   0.14518   0.14543   0.14997   0.15047
 Alpha virt. eigenvalues --    0.15500   0.15521   0.15528   0.17767   0.17827
 Alpha virt. eigenvalues --    0.17999   0.18032   0.18081   0.18203   0.22820
 Alpha virt. eigenvalues --    0.22939   0.23642   0.23712   0.26839   0.26888
 Alpha virt. eigenvalues --    0.29510   0.29565   0.29981   0.30035   0.30102
 Alpha virt. eigenvalues --    0.30206   0.31981   0.31991   0.32857   0.32881
 Alpha virt. eigenvalues --    0.36782   0.36895   0.37056   0.37145   0.42716
 Alpha virt. eigenvalues --    0.43125   0.43340   0.45868   0.56536   0.56554
 Alpha virt. eigenvalues --    0.57996   0.58008   0.60476   0.69609   0.82588
 Alpha virt. eigenvalues --    0.82726   0.82850   0.82943   0.85284   0.89221
          Condensed to atoms (all electrons):
 Mulliken charges:
               1
     1  Al  -0.076559
     2  Al  -0.067607
     3  Al  -0.073003
     4  Al  -0.074916
     5  Al  -0.068653
     6  Al   0.006548
     7  Al  -0.066614
     8  Al  -0.074269
     9  Al  -0.066976
    10  Al  -0.073588
    11  Al   0.026050
    12  Al   0.127580
    13  Al   0.030425
    14  Al   0.129269
    15  Al   0.117998
    16  Al   0.028846
    17  Al  -0.027340
    18  Al  -0.027521
    19  Al  -0.027720
    20  Al  -0.015307
    21  C   -0.110478
    22  C   -0.121185
    23  C   -0.110435
    24  C   -0.124721
    25  C   -0.112754
    26  C   -0.123415
    27  H    0.214907
    28  H    0.201627
    29  H    0.215184
    30  H    0.202159
    31  H    0.215340
    32  H    0.201906
    33  Al  -0.017981
    34  Al  -0.024849
    35  Al  -0.027484
    36  Al  -0.030221
    37  Al   0.032838
    38  Al   0.113200
    39  Al   0.031061
    40  Al   0.122421
    41  Al   0.135642
    42  Al   0.032770
    43  Al  -0.072578
    44  Al  -0.067093
    45  Al  -0.064398
    46  Al  -0.075050
    47  Al  -0.074515
    48  Al   0.006412
    49  Al  -0.077743
    50  Al  -0.063637
    51  Al  -0.070849
    52  Al  -0.082705
 Sum of Mulliken charges =   0.00002
 Mulliken charges with hydrogens summed into heavy atoms:
               1
     1  Al  -0.076559
     2  Al  -0.067607
     3  Al  -0.073003
     4  Al  -0.074916
     5  Al  -0.068653
     6  Al   0.006548
     7  Al  -0.066614
     8  Al  -0.074269
     9  Al  -0.066976
    10  Al  -0.073588
    11  Al   0.026050
    12  Al   0.127580
    13  Al   0.030425
    14  Al   0.129269
    15  Al   0.117998
    16  Al   0.028846
    17  Al  -0.027340
    18  Al  -0.027521
    19  Al  -0.027720
    20  Al  -0.015307
    21  C    0.104428
    22  C    0.080442
    23  C    0.104750
    24  C    0.077438
    25  C    0.102587
    26  C    0.078491
    33  Al  -0.017981
    34  Al  -0.024849
    35  Al  -0.027484
    36  Al  -0.030221
    37  Al   0.032838
    38  Al   0.113200
    39  Al   0.031061
    40  Al   0.122421
    41  Al   0.135642
    42  Al   0.032770
    43  Al  -0.072578
    44  Al  -0.067093
    45  Al  -0.064398
    46  Al  -0.075050
    47  Al  -0.074515
    48  Al   0.006412
    49  Al  -0.077743
    50  Al  -0.063637
    51  Al  -0.070849
    52  Al  -0.082705
 Electronic spatial extent (au):  <R**2>=          22006.0963
 Charge=              0.0000 electrons
 Dipole moment (field-independent basis, Debye):
    X=              0.0662    Y=             -0.1236    Z=              0.0521  Tot=              0.1496
 Quadrupole moment (field-independent basis, Debye-Ang):
   XX=           -770.5998   YY=           -582.4277   ZZ=           -582.2200
   XY=              1.9075   XZ=              0.2135   YZ=              0.2030
 Traceless Quadrupole moment (field-independent basis, Debye-Ang):
   XX=           -125.5173   YY=             62.6548   ZZ=             62.8625
   XY=              1.9075   XZ=              0.2135   YZ=              0.2030
 Octapole moment (field-independent basis, Debye-Ang**2):
  XXX=              8.5680  YYY=             11.8586  ZZZ=             48.3451  XYY=              2.3535
  XXY=             -9.7091  XXZ=              2.3940  XZZ=             -0.1032  YZZ=            -15.5960
  YYZ=            -46.4896  XYZ=             -0.9250
 Hexadecapole moment (field-independent basis, Debye-Ang**3):
 XXXX=        -147513.0402 YYYY=         -13196.2922 ZZZZ=         -13186.9650 XXXY=            156.3122
 XXXZ=             35.6445 YYYX=             49.1748 YYYZ=              5.0234 ZZZX=              6.0077
 ZZZY=              0.2694 XXYY=         -25274.1400 XXZZ=         -25270.8005 YYZZ=          -4397.8977
 XXYZ=              7.7131 YYXZ=             -0.7926 ZZXY=             14.7748
 N-N= 1.285579001822D+03 E-N=-3.213855319563D+03  KE= 2.650584967929D+02
 No NMR shielding tensors so no spin-rotation constants.
 Leave Link  601 at Fri Feb 12 12:19:58 2016, MaxMem=   262144000 cpu:         1.5
 (Enter /home/palacios/gaussian/g09/l9999.exe)
 1\1\GINC-ASUS\SP\RBLYP\Gen\C6H6Al40\PALACIOS\12-Feb-2016\0\\#p blyp/ge
 n pseudo=read scf=(maxcycle=300,conver=5,dsymm)\\Al-benzene-Al\\0,1\Al
 ,0,8.256,9.8384,31.62968\Al,0,9.504,12.,31.62968\Al,0,10.752,14.1616,3
 1.62968\Al,0,12.,16.3232,31.62968\Al,0,10.752,9.8384,31.62968\Al,0,12.
 ,12.,31.62968\Al,0,13.248,14.1616,31.62968\Al,0,13.248,9.8384,31.62968
 \Al,0,14.496,12.,31.62968\Al,0,15.744,9.8384,31.62968\Al,0,9.504,10.55
 893,29.59169\Al,0,10.752,12.72053,29.59169\Al,0,12.,14.88213,29.59169\
 Al,0,12.,10.55893,29.59169\Al,0,13.248,12.72053,29.59169\Al,0,14.496,1
 0.55893,29.59169\Al,0,10.752,11.27947,27.55372\Al,0,12.,13.44107,27.55
 372\Al,0,13.248,11.27947,27.55372\Al,0,11.99982,12.00568,25.6682\C,0,1
 1.9992,13.43669,23.97027\C,0,10.7577,12.7216,23.98759\C,0,10.75925,11.
 28891,24.01333\C,0,11.99972,10.57114,24.02376\C,0,13.23998,11.28928,24
 .01283\C,0,13.24094,12.72203,23.98729\H,0,11.99899,14.52551,23.94972\H
 ,0,9.81499,13.26589,23.97784\H,0,9.81611,10.74465,24.02366\H,0,11.9998
 8,9.48276,24.04349\H,0,14.1833,10.74527,24.02289\H,0,14.18349,13.26664
 ,23.97695\Al,0,11.99972,11.99719,22.33112\Al,0,10.752,11.27947,20.4462
 6\Al,0,12.,13.44107,20.44626\Al,0,13.248,11.27947,20.44626\Al,0,9.504,
 10.55893,18.40829\Al,0,10.752,12.72053,18.40829\Al,0,12.,14.88213,18.4
 0829\Al,0,12.,10.55893,18.40829\Al,0,13.248,12.72053,18.40829\Al,0,14.
 496,10.55893,18.40829\Al,0,8.256,9.8384,16.37032\Al,0,9.504,12.,16.370
 32\Al,0,10.752,14.1616,16.37032\Al,0,12.,16.3232,16.37032\Al,0,10.752,
 9.8384,16.37032\Al,0,12.,12.,16.37032\Al,0,13.248,14.1616,16.37032\Al,
 0,13.248,9.8384,16.37032\Al,0,14.496,12.,16.37032\Al,0,15.744,9.8384,1
 6.37032\\Version=ES64L-G09RevD.01\State=1-A\HF=-299.7192617\RMSD=9.958
 e-06\Dipole=-0.0463078,0.0253292,0.0260652\Quadrupole=46.6143246,46.70
 4727,-93.3190517,0.163337,1.427034,0.0204833\PG=C01 [X(C6H6Al40)]\\@


 Boundary, n.  In political geography, an imaginary
 line between two nations, separating the imaginary
 rights of one from the imaginary rights of another.
                               -- Ambrose Bierce
 Job cpu time:       0 days  0 hours 22 minutes 45.2 seconds.
 File lengths (MBytes):  RWF=     17 Int=      0 D2E=      0 Chk=      3 Scr=      1
 Normal termination of Gaussian 09 at Fri Feb 12 12:19:58 2016.
