 Entering Gaussian System, Link 0=g09
 Input=Al9-Al4-Al-Al-Al4-Al9.gjf
 Output=Al9-Al4-Al-Al-Al4-Al9.log
 Initial command:
 /home/palacios/gaussian/g09/l1.exe "/home/palacios/scratch/Gau-28310.inp" -scrdir="/home/palacios/scratch/"
 Entering Link 1 = /home/palacios/gaussian/g09/l1.exe PID=     28312.
  
 Copyright (c) 1988,1990,1992,1993,1995,1998,2003,2009,2013,
            Gaussian, Inc.  All Rights Reserved.
  
 This is part of the Gaussian(R) 09 program.  It is based on
 the Gaussian(R) 03 system (copyright 2003, Gaussian, Inc.),
 the Gaussian(R) 98 system (copyright 1998, Gaussian, Inc.),
 the Gaussian(R) 94 system (copyright 1995, Gaussian, Inc.),
 the Gaussian 92(TM) system (copyright 1992, Gaussian, Inc.),
 the Gaussian 90(TM) system (copyright 1990, Gaussian, Inc.),
 the Gaussian 88(TM) system (copyright 1988, Gaussian, Inc.),
 the Gaussian 86(TM) system (copyright 1986, Carnegie Mellon
 University), and the Gaussian 82(TM) system (copyright 1983,
 Carnegie Mellon University). Gaussian is a federally registered
 trademark of Gaussian, Inc.
  
 This software contains proprietary and confidential information,
 including trade secrets, belonging to Gaussian, Inc.
  
 This software is provided under written license and may be
 used, copied, transmitted, or stored only in accord with that
 written license.
  
 The following legend is applicable only to US Government
 contracts under FAR:
  
                    RESTRICTED RIGHTS LEGEND
  
 Use, reproduction and disclosure by the US Government is
 subject to restrictions as set forth in subparagraphs (a)
 and (c) of the Commercial Computer Software - Restricted
 Rights clause in FAR 52.227-19.
  
 Gaussian, Inc.
 340 Quinnipiac St., Bldg. 40, Wallingford CT 06492
  
  
 ---------------------------------------------------------------
 Warning -- This program may not be used in any manner that
 competes with the business of Gaussian, Inc. or will provide
 assistance to any competitor of Gaussian, Inc.  The licensee
 of this program is prohibited from giving any competitor of
 Gaussian, Inc. access to this program.  By using this program,
 the user acknowledges that Gaussian, Inc. is engaged in the
 business of creating and licensing software in the field of
 computational chemistry and represents and warrants to the
 licensee that it is not a competitor of Gaussian, Inc. and that
 it will not use this program in any manner prohibited above.
 ---------------------------------------------------------------
  

 Cite this work as:
 Gaussian 09, Revision D.01,
 M. J. Frisch, G. W. Trucks, H. B. Schlegel, G. E. Scuseria, 
 M. A. Robb, J. R. Cheeseman, G. Scalmani, V. Barone, B. Mennucci, 
 G. A. Petersson, H. Nakatsuji, M. Caricato, X. Li, H. P. Hratchian, 
 A. F. Izmaylov, J. Bloino, G. Zheng, J. L. Sonnenberg, M. Hada, 
 M. Ehara, K. Toyota, R. Fukuda, J. Hasegawa, M. Ishida, T. Nakajima, 
 Y. Honda, O. Kitao, H. Nakai, T. Vreven, J. A. Montgomery, Jr., 
 J. E. Peralta, F. Ogliaro, M. Bearpark, J. J. Heyd, E. Brothers, 
 K. N. Kudin, V. N. Staroverov, T. Keith, R. Kobayashi, J. Normand, 
 K. Raghavachari, A. Rendell, J. C. Burant, S. S. Iyengar, J. Tomasi, 
 M. Cossi, N. Rega, J. M. Millam, M. Klene, J. E. Knox, J. B. Cross, 
 V. Bakken, C. Adamo, J. Jaramillo, R. Gomperts, R. E. Stratmann, 
 O. Yazyev, A. J. Austin, R. Cammi, C. Pomelli, J. W. Ochterski, 
 R. L. Martin, K. Morokuma, V. G. Zakrzewski, G. A. Voth, 
 P. Salvador, J. J. Dannenberg, S. Dapprich, A. D. Daniels, 
 O. Farkas, J. B. Foresman, J. V. Ortiz, J. Cioslowski, 
 and D. J. Fox, Gaussian, Inc., Wallingford CT, 2013.
 
 ******************************************
 Gaussian 09:  ES64L-G09RevD.01 24-Apr-2013
                14-May-2021 
 ******************************************
 %mem=1000MB
 %NProcShared=4
 Will use up to    4 processors via shared memory.
 %Subst L101 ../../bin
 %Subst L502 ../../bin
 ---------------------------------------------------
 #p lsda/gen pseudo=read Scf=(conver=5,dsymm,nodamp)
 ---------------------------------------------------
 1/38=1/1;
 2/12=2,17=6,18=5,40=1/2;
 3/5=7,11=2,16=1,17=8,25=1,30=1,74=205/1,2,3;
 4//1;
 5/5=2,6=5,17=200,18=-2,38=5/2;
 6/7=2,8=2,9=2,10=2,28=1/1;
 99/5=1,9=1/99;
 Leave Link    1 at Fri May 14 13:06:30 2021, MaxMem=   131072000 cpu:         0.0
 (Enter ../../bin/l101.exe)
 ---------------------
 Al9-Al4-Al-Al-Al4-Al9
 ---------------------
 Symbolic Z-matrix:
 Charge =  0 Multiplicity = 1
 Al                   -4.        0.       -6. 
 Al                    0.        4.       -6. 
 Al                    0.        0.       -6. 
 Al                   -2.        2.       -6. 
 Al                   -2.       -2.       -6. 
 Al                    2.        2.       -6. 
 Al                    0.       -4.       -6. 
 Al                    2.       -2.       -6. 
 Al                    4.        0.       -6. 
 Al                   -2.        0.       -4. 
 Al                    0.        2.       -4. 
 Al                    0.       -2.       -4. 
 Al                    2.        0.       -4. 
 Al                    0.        0.       -2. 
 Al                    0.        0.        2. 
 Al                   -2.        0.        4. 
 Al                    0.        2.        4. 
 Al                    0.       -2.        4. 
 Al                    2.        0.        4. 
 Al                   -4.        0.        6. 
 Al                   -2.        2.        6. 
 Al                    0.        4.        6. 
 Al                   -2.       -2.        6. 
 Al                    2.        2.        6. 
 Al                    2.       -2.        6. 
 Al                    0.        0.        6. 
 Al                    0.       -4.        6. 
 Al                    4.        0.        6. 
 
 NAtoms=     28 NQM=       28 NQMF=       0 NMMI=      0 NMMIF=      0
                NMic=       0 NMicF=      0.
                    Isotopes and Nuclear Properties:
 (Nuclear quadrupole moments (NQMom) in fm**2, nuclear magnetic moments (NMagM)
  in nuclear magnetons)

  Atom         1           2           3           4           5           6           7           8           9          10
 IAtWgt=          27          27          27          27          27          27          27          27          27          27
 AtmWgt=  26.9815413  26.9815413  26.9815413  26.9815413  26.9815413  26.9815413  26.9815413  26.9815413  26.9815413  26.9815413
 NucSpn=           5           5           5           5           5           5           5           5           5           5
 AtZEff=   0.0000000   0.0000000   0.0000000   0.0000000   0.0000000   0.0000000   0.0000000   0.0000000   0.0000000   0.0000000
 NQMom=   14.6600000  14.6600000  14.6600000  14.6600000  14.6600000  14.6600000  14.6600000  14.6600000  14.6600000  14.6600000
 NMagM=    3.6415040   3.6415040   3.6415040   3.6415040   3.6415040   3.6415040   3.6415040   3.6415040   3.6415040   3.6415040
 AtZNuc=  13.0000000  13.0000000  13.0000000  13.0000000  13.0000000  13.0000000  13.0000000  13.0000000  13.0000000  13.0000000

  Atom        11          12          13          14          15          16          17          18          19          20
 IAtWgt=          27          27          27          27          27          27          27          27          27          27
 AtmWgt=  26.9815413  26.9815413  26.9815413  26.9815413  26.9815413  26.9815413  26.9815413  26.9815413  26.9815413  26.9815413
 NucSpn=           5           5           5           5           5           5           5           5           5           5
 AtZEff=   0.0000000   0.0000000   0.0000000   0.0000000   0.0000000   0.0000000   0.0000000   0.0000000   0.0000000   0.0000000
 NQMom=   14.6600000  14.6600000  14.6600000  14.6600000  14.6600000  14.6600000  14.6600000  14.6600000  14.6600000  14.6600000
 NMagM=    3.6415040   3.6415040   3.6415040   3.6415040   3.6415040   3.6415040   3.6415040   3.6415040   3.6415040   3.6415040
 AtZNuc=  13.0000000  13.0000000  13.0000000  13.0000000  13.0000000  13.0000000  13.0000000  13.0000000  13.0000000  13.0000000

  Atom        21          22          23          24          25          26          27          28
 IAtWgt=          27          27          27          27          27          27          27          27
 AtmWgt=  26.9815413  26.9815413  26.9815413  26.9815413  26.9815413  26.9815413  26.9815413  26.9815413
 NucSpn=           5           5           5           5           5           5           5           5
 AtZEff=   0.0000000   0.0000000   0.0000000   0.0000000   0.0000000   0.0000000   0.0000000   0.0000000
 NQMom=   14.6600000  14.6600000  14.6600000  14.6600000  14.6600000  14.6600000  14.6600000  14.6600000
 NMagM=    3.6415040   3.6415040   3.6415040   3.6415040   3.6415040   3.6415040   3.6415040   3.6415040
 AtZNuc=  13.0000000  13.0000000  13.0000000  13.0000000  13.0000000  13.0000000  13.0000000  13.0000000
 Leave Link  101 at Fri May 14 13:06:30 2021, MaxMem=   131072000 cpu:         0.1
 (Enter /home/palacios/gaussian/g09/l202.exe)
                          Input orientation:                          
 ---------------------------------------------------------------------
 Center     Atomic      Atomic             Coordinates (Angstroms)
 Number     Number       Type             X           Y           Z
 ---------------------------------------------------------------------
      1         13           0       -4.000000    0.000000   -6.000000
      2         13           0        0.000000    4.000000   -6.000000
      3         13           0        0.000000    0.000000   -6.000000
      4         13           0       -2.000000    2.000000   -6.000000
      5         13           0       -2.000000   -2.000000   -6.000000
      6         13           0        2.000000    2.000000   -6.000000
      7         13           0        0.000000   -4.000000   -6.000000
      8         13           0        2.000000   -2.000000   -6.000000
      9         13           0        4.000000    0.000000   -6.000000
     10         13           0       -2.000000    0.000000   -4.000000
     11         13           0        0.000000    2.000000   -4.000000
     12         13           0        0.000000   -2.000000   -4.000000
     13         13           0        2.000000    0.000000   -4.000000
     14         13           0        0.000000    0.000000   -2.000000
     15         13           0        0.000000    0.000000    2.000000
     16         13           0       -2.000000    0.000000    4.000000
     17         13           0        0.000000    2.000000    4.000000
     18         13           0        0.000000   -2.000000    4.000000
     19         13           0        2.000000    0.000000    4.000000
     20         13           0       -4.000000    0.000000    6.000000
     21         13           0       -2.000000    2.000000    6.000000
     22         13           0        0.000000    4.000000    6.000000
     23         13           0       -2.000000   -2.000000    6.000000
     24         13           0        2.000000    2.000000    6.000000
     25         13           0        2.000000   -2.000000    6.000000
     26         13           0        0.000000    0.000000    6.000000
     27         13           0        0.000000   -4.000000    6.000000
     28         13           0        4.000000    0.000000    6.000000
 ---------------------------------------------------------------------
                    Distance matrix (angstroms):
                    1          2          3          4          5
     1  Al   0.000000
     2  Al   5.656854   0.000000
     3  Al   4.000000   4.000000   0.000000
     4  Al   2.828427   2.828427   2.828427   0.000000
     5  Al   2.828427   6.324555   2.828427   4.000000   0.000000
     6  Al   6.324555   2.828427   2.828427   4.000000   5.656854
     7  Al   5.656854   8.000000   4.000000   6.324555   2.828427
     8  Al   6.324555   6.324555   2.828427   5.656854   4.000000
     9  Al   8.000000   5.656854   4.000000   6.324555   6.324555
    10  Al   2.828427   4.898979   2.828427   2.828427   2.828427
    11  Al   4.898979   2.828427   2.828427   2.828427   4.898979
    12  Al   4.898979   6.324555   2.828427   4.898979   2.828427
    13  Al   6.324555   4.898979   2.828427   4.898979   4.898979
    14  Al   5.656854   5.656854   4.000000   4.898979   4.898979
    15  Al   8.944272   8.944272   8.000000   8.485281   8.485281
    16  Al  10.198039  10.954451  10.198039  10.198039  10.198039
    17  Al  10.954451  10.198039  10.198039  10.198039  10.954451
    18  Al  10.954451  11.661904  10.198039  10.954451  10.198039
    19  Al  11.661904  10.954451  10.198039  10.954451  10.954451
    20  Al  12.000000  13.266499  12.649111  12.328828  12.328828
    21  Al  12.328828  12.328828  12.328828  12.000000  12.649111
    22  Al  13.266499  12.000000  12.649111  12.328828  13.564660
    23  Al  12.328828  13.564660  12.328828  12.649111  12.000000
    24  Al  13.564660  12.328828  12.328828  12.649111  13.266499
    25  Al  13.564660  13.564660  12.328828  13.266499  12.649111
    26  Al  12.649111  12.649111  12.000000  12.328828  12.328828
    27  Al  13.266499  14.422205  12.649111  13.564660  12.328828
    28  Al  14.422205  13.266499  12.649111  13.564660  13.564660
                    6          7          8          9         10
     6  Al   0.000000
     7  Al   6.324555   0.000000
     8  Al   4.000000   2.828427   0.000000
     9  Al   2.828427   5.656854   2.828427   0.000000
    10  Al   4.898979   4.898979   4.898979   6.324555   0.000000
    11  Al   2.828427   6.324555   4.898979   4.898979   2.828427
    12  Al   4.898979   2.828427   2.828427   4.898979   2.828427
    13  Al   2.828427   4.898979   2.828427   2.828427   4.000000
    14  Al   4.898979   5.656854   4.898979   5.656854   2.828427
    15  Al   8.485281   8.944272   8.485281   8.944272   6.324555
    16  Al  10.954451  10.954451  10.954451  11.661904   8.000000
    17  Al  10.198039  11.661904  10.954451  10.954451   8.485281
    18  Al  10.954451  10.198039  10.198039  10.954451   8.485281
    19  Al  10.198039  10.954451  10.198039  10.198039   8.944272
    20  Al  13.564660  13.266499  13.564660  14.422205  10.198039
    21  Al  12.649111  13.564660  13.266499  13.564660  10.198039
    22  Al  12.328828  14.422205  13.564660  13.266499  10.954451
    23  Al  13.266499  12.328828  12.649111  13.564660  10.198039
    24  Al  12.000000  13.564660  12.649111  12.328828  10.954451
    25  Al  12.649111  12.328828  12.000000  12.328828  10.954451
    26  Al  12.328828  12.649111  12.328828  12.649111  10.198039
    27  Al  13.564660  12.000000  12.328828  13.266499  10.954451
    28  Al  12.328828  13.266499  12.328828  12.000000  11.661904
                   11         12         13         14         15
    11  Al   0.000000
    12  Al   4.000000   0.000000
    13  Al   2.828427   2.828427   0.000000
    14  Al   2.828427   2.828427   2.828427   0.000000
    15  Al   6.324555   6.324555   6.324555   4.000000   0.000000
    16  Al   8.485281   8.485281   8.944272   6.324555   2.828427
    17  Al   8.000000   8.944272   8.485281   6.324555   2.828427
    18  Al   8.944272   8.000000   8.485281   6.324555   2.828427
    19  Al   8.485281   8.485281   8.000000   6.324555   2.828427
    20  Al  10.954451  10.954451  11.661904   8.944272   5.656854
    21  Al  10.198039  10.954451  10.954451   8.485281   4.898979
    22  Al  10.198039  11.661904  10.954451   8.944272   5.656854
    23  Al  10.954451  10.198039  10.954451   8.485281   4.898979
    24  Al  10.198039  10.954451  10.198039   8.485281   4.898979
    25  Al  10.954451  10.198039  10.198039   8.485281   4.898979
    26  Al  10.198039  10.198039  10.198039   8.000000   4.000000
    27  Al  11.661904  10.198039  10.954451   8.944272   5.656854
    28  Al  10.954451  10.954451  10.198039   8.944272   5.656854
                   16         17         18         19         20
    16  Al   0.000000
    17  Al   2.828427   0.000000
    18  Al   2.828427   4.000000   0.000000
    19  Al   4.000000   2.828427   2.828427   0.000000
    20  Al   2.828427   4.898979   4.898979   6.324555   0.000000
    21  Al   2.828427   2.828427   4.898979   4.898979   2.828427
    22  Al   4.898979   2.828427   6.324555   4.898979   5.656854
    23  Al   2.828427   4.898979   2.828427   4.898979   2.828427
    24  Al   4.898979   2.828427   4.898979   2.828427   6.324555
    25  Al   4.898979   4.898979   2.828427   2.828427   6.324555
    26  Al   2.828427   2.828427   2.828427   2.828427   4.000000
    27  Al   4.898979   6.324555   2.828427   4.898979   5.656854
    28  Al   6.324555   4.898979   4.898979   2.828427   8.000000
                   21         22         23         24         25
    21  Al   0.000000
    22  Al   2.828427   0.000000
    23  Al   4.000000   6.324555   0.000000
    24  Al   4.000000   2.828427   5.656854   0.000000
    25  Al   5.656854   6.324555   4.000000   4.000000   0.000000
    26  Al   2.828427   4.000000   2.828427   2.828427   2.828427
    27  Al   6.324555   8.000000   2.828427   6.324555   2.828427
    28  Al   6.324555   5.656854   6.324555   2.828427   2.828427
                   26         27         28
    26  Al   0.000000
    27  Al   4.000000   0.000000
    28  Al   4.000000   5.656854   0.000000
 Stoichiometry    Al28
 Framework group  D4H[C4(AlAl.AlAl),2SGV(Al8),2SGD(Al4)]
 Deg. of freedom     8
 Full point group                 D4H     NOp  16
 Largest Abelian subgroup         D2H     NOp   8
 Largest concise Abelian subgroup D2H     NOp   8
                         Standard orientation:                         
 ---------------------------------------------------------------------
 Center     Atomic      Atomic             Coordinates (Angstroms)
 Number     Number       Type             X           Y           Z
 ---------------------------------------------------------------------
      1         13           0        0.000000    4.000000    6.000000
      2         13           0       -4.000000    0.000000    6.000000
      3         13           0        0.000000    0.000000    6.000000
      4         13           0       -2.000000    2.000000    6.000000
      5         13           0        2.000000    2.000000    6.000000
      6         13           0       -2.000000   -2.000000    6.000000
      7         13           0        4.000000   -0.000000    6.000000
      8         13           0        2.000000   -2.000000    6.000000
      9         13           0       -0.000000   -4.000000    6.000000
     10         13           0        0.000000    2.000000    4.000000
     11         13           0       -2.000000    0.000000    4.000000
     12         13           0        2.000000   -0.000000    4.000000
     13         13           0       -0.000000   -2.000000    4.000000
     14         13           0        0.000000    0.000000    2.000000
     15         13           0        0.000000    0.000000   -2.000000
     16         13           0        0.000000    2.000000   -4.000000
     17         13           0       -2.000000    0.000000   -4.000000
     18         13           0        2.000000   -0.000000   -4.000000
     19         13           0       -0.000000   -2.000000   -4.000000
     20         13           0        0.000000    4.000000   -6.000000
     21         13           0       -2.000000    2.000000   -6.000000
     22         13           0       -4.000000    0.000000   -6.000000
     23         13           0        2.000000    2.000000   -6.000000
     24         13           0       -2.000000   -2.000000   -6.000000
     25         13           0        2.000000   -2.000000   -6.000000
     26         13           0        0.000000    0.000000   -6.000000
     27         13           0        4.000000   -0.000000   -6.000000
     28         13           0       -0.000000   -4.000000   -6.000000
 ---------------------------------------------------------------------
 Rotational constants (GHZ):      0.0836185      0.0209046      0.0209046
 Leave Link  202 at Fri May 14 13:06:30 2021, MaxMem=   131072000 cpu:         0.0
 (Enter /home/palacios/gaussian/g09/l301.exe)
 General basis read from cards:  (5D, 7F)
 Centers:       1      2      3      4      5      6      7      8      9     10
 Centers:      11     12     13     14     15     16     17     18     19     20
 Centers:      21     22     23     24     25     26     27     28
 S 4 1.0
     Exponent=  9.3510000000D+00 Coefficients= -2.1380000000D-03
     Exponent=  9.5720000000D-01 Coefficients= -2.2640700000D-01
     Exponent=  1.5860000000D-01 Coefficients=  7.5270300000D-01
     Exponent=  5.3810000000D-02 Coefficients=  3.9316600000D-01
 P 4 1.0
     Exponent=  3.9060000000D+00 Coefficients= -8.5700000000D-03
     Exponent=  1.5760000000D+00 Coefficients= -1.5353000000D-02
     Exponent=  1.9770000000D-01 Coefficients=  4.8544000000D-01
     Exponent=  5.7300000000D-02 Coefficients=  6.2200600000D-01
 ****
 ======================================================================================================
                                       Pseudopotential Parameters
 ======================================================================================================
  Center     Atomic      Valence      Angular      Power
  Number     Number     Electrons     Momentum     of R      Exponent        Coefficient   SO-Coeffient
 ======================================================================================================
    1         13            3
                                      D and up 
                                                     2        1.2211000       -0.53798100    0.00000000
                                                     2        3.3681000       -5.45975600    0.00000000
                                                     2        9.7500000      -16.65534300    0.00000000
                                                     1       29.2693000       -6.47521500    0.00000000
                                      S - D
                                                     2        1.5631000      -56.20521300    0.00000000
                                                     2        1.7712000      149.68995500    0.00000000
                                                     2        2.0623000      -91.45439400    0.00000000
                                                     1        3.3583000        3.72894900    0.00000000
                                                     0        2.1300000        3.03799400    0.00000000
                                      P - D
                                                     2        1.8231000       93.67560600    0.00000000
                                                     2        2.1249000     -189.88896800    0.00000000
                                                     2        2.5705000      110.24810400    0.00000000
                                                     1        1.7575000        4.19959600    0.00000000
                                                     0        6.7693000        5.00335600    0.00000000
    2         13            3
                                      D and up 
                                                     2        1.2211000       -0.53798100    0.00000000
                                                     2        3.3681000       -5.45975600    0.00000000
                                                     2        9.7500000      -16.65534300    0.00000000
                                                     1       29.2693000       -6.47521500    0.00000000
                                      S - D
                                                     2        1.5631000      -56.20521300    0.00000000
                                                     2        1.7712000      149.68995500    0.00000000
                                                     2        2.0623000      -91.45439400    0.00000000
                                                     1        3.3583000        3.72894900    0.00000000
                                                     0        2.1300000        3.03799400    0.00000000
                                      P - D
                                                     2        1.8231000       93.67560600    0.00000000
                                                     2        2.1249000     -189.88896800    0.00000000
                                                     2        2.5705000      110.24810400    0.00000000
                                                     1        1.7575000        4.19959600    0.00000000
                                                     0        6.7693000        5.00335600    0.00000000
    3         13            3
                                      D and up 
                                                     2        1.2211000       -0.53798100    0.00000000
                                                     2        3.3681000       -5.45975600    0.00000000
                                                     2        9.7500000      -16.65534300    0.00000000
                                                     1       29.2693000       -6.47521500    0.00000000
                                      S - D
                                                     2        1.5631000      -56.20521300    0.00000000
                                                     2        1.7712000      149.68995500    0.00000000
                                                     2        2.0623000      -91.45439400    0.00000000
                                                     1        3.3583000        3.72894900    0.00000000
                                                     0        2.1300000        3.03799400    0.00000000
                                      P - D
                                                     2        1.8231000       93.67560600    0.00000000
                                                     2        2.1249000     -189.88896800    0.00000000
                                                     2        2.5705000      110.24810400    0.00000000
                                                     1        1.7575000        4.19959600    0.00000000
                                                     0        6.7693000        5.00335600    0.00000000
    4         13            3
                                      D and up 
                                                     2        1.2211000       -0.53798100    0.00000000
                                                     2        3.3681000       -5.45975600    0.00000000
                                                     2        9.7500000      -16.65534300    0.00000000
                                                     1       29.2693000       -6.47521500    0.00000000
                                      S - D
                                                     2        1.5631000      -56.20521300    0.00000000
                                                     2        1.7712000      149.68995500    0.00000000
                                                     2        2.0623000      -91.45439400    0.00000000
                                                     1        3.3583000        3.72894900    0.00000000
                                                     0        2.1300000        3.03799400    0.00000000
                                      P - D
                                                     2        1.8231000       93.67560600    0.00000000
                                                     2        2.1249000     -189.88896800    0.00000000
                                                     2        2.5705000      110.24810400    0.00000000
                                                     1        1.7575000        4.19959600    0.00000000
                                                     0        6.7693000        5.00335600    0.00000000
    5         13            3
                                      D and up 
                                                     2        1.2211000       -0.53798100    0.00000000
                                                     2        3.3681000       -5.45975600    0.00000000
                                                     2        9.7500000      -16.65534300    0.00000000
                                                     1       29.2693000       -6.47521500    0.00000000
                                      S - D
                                                     2        1.5631000      -56.20521300    0.00000000
                                                     2        1.7712000      149.68995500    0.00000000
                                                     2        2.0623000      -91.45439400    0.00000000
                                                     1        3.3583000        3.72894900    0.00000000
                                                     0        2.1300000        3.03799400    0.00000000
                                      P - D
                                                     2        1.8231000       93.67560600    0.00000000
                                                     2        2.1249000     -189.88896800    0.00000000
                                                     2        2.5705000      110.24810400    0.00000000
                                                     1        1.7575000        4.19959600    0.00000000
                                                     0        6.7693000        5.00335600    0.00000000
    6         13            3
                                      D and up 
                                                     2        1.2211000       -0.53798100    0.00000000
                                                     2        3.3681000       -5.45975600    0.00000000
                                                     2        9.7500000      -16.65534300    0.00000000
                                                     1       29.2693000       -6.47521500    0.00000000
                                      S - D
                                                     2        1.5631000      -56.20521300    0.00000000
                                                     2        1.7712000      149.68995500    0.00000000
                                                     2        2.0623000      -91.45439400    0.00000000
                                                     1        3.3583000        3.72894900    0.00000000
                                                     0        2.1300000        3.03799400    0.00000000
                                      P - D
                                                     2        1.8231000       93.67560600    0.00000000
                                                     2        2.1249000     -189.88896800    0.00000000
                                                     2        2.5705000      110.24810400    0.00000000
                                                     1        1.7575000        4.19959600    0.00000000
                                                     0        6.7693000        5.00335600    0.00000000
    7         13            3
                                      D and up 
                                                     2        1.2211000       -0.53798100    0.00000000
                                                     2        3.3681000       -5.45975600    0.00000000
                                                     2        9.7500000      -16.65534300    0.00000000
                                                     1       29.2693000       -6.47521500    0.00000000
                                      S - D
                                                     2        1.5631000      -56.20521300    0.00000000
                                                     2        1.7712000      149.68995500    0.00000000
                                                     2        2.0623000      -91.45439400    0.00000000
                                                     1        3.3583000        3.72894900    0.00000000
                                                     0        2.1300000        3.03799400    0.00000000
                                      P - D
                                                     2        1.8231000       93.67560600    0.00000000
                                                     2        2.1249000     -189.88896800    0.00000000
                                                     2        2.5705000      110.24810400    0.00000000
                                                     1        1.7575000        4.19959600    0.00000000
                                                     0        6.7693000        5.00335600    0.00000000
    8         13            3
                                      D and up 
                                                     2        1.2211000       -0.53798100    0.00000000
                                                     2        3.3681000       -5.45975600    0.00000000
                                                     2        9.7500000      -16.65534300    0.00000000
                                                     1       29.2693000       -6.47521500    0.00000000
                                      S - D
                                                     2        1.5631000      -56.20521300    0.00000000
                                                     2        1.7712000      149.68995500    0.00000000
                                                     2        2.0623000      -91.45439400    0.00000000
                                                     1        3.3583000        3.72894900    0.00000000
                                                     0        2.1300000        3.03799400    0.00000000
                                      P - D
                                                     2        1.8231000       93.67560600    0.00000000
                                                     2        2.1249000     -189.88896800    0.00000000
                                                     2        2.5705000      110.24810400    0.00000000
                                                     1        1.7575000        4.19959600    0.00000000
                                                     0        6.7693000        5.00335600    0.00000000
    9         13            3
                                      D and up 
                                                     2        1.2211000       -0.53798100    0.00000000
                                                     2        3.3681000       -5.45975600    0.00000000
                                                     2        9.7500000      -16.65534300    0.00000000
                                                     1       29.2693000       -6.47521500    0.00000000
                                      S - D
                                                     2        1.5631000      -56.20521300    0.00000000
                                                     2        1.7712000      149.68995500    0.00000000
                                                     2        2.0623000      -91.45439400    0.00000000
                                                     1        3.3583000        3.72894900    0.00000000
                                                     0        2.1300000        3.03799400    0.00000000
                                      P - D
                                                     2        1.8231000       93.67560600    0.00000000
                                                     2        2.1249000     -189.88896800    0.00000000
                                                     2        2.5705000      110.24810400    0.00000000
                                                     1        1.7575000        4.19959600    0.00000000
                                                     0        6.7693000        5.00335600    0.00000000
   10         13            3
                                      D and up 
                                                     2        1.2211000       -0.53798100    0.00000000
                                                     2        3.3681000       -5.45975600    0.00000000
                                                     2        9.7500000      -16.65534300    0.00000000
                                                     1       29.2693000       -6.47521500    0.00000000
                                      S - D
                                                     2        1.5631000      -56.20521300    0.00000000
                                                     2        1.7712000      149.68995500    0.00000000
                                                     2        2.0623000      -91.45439400    0.00000000
                                                     1        3.3583000        3.72894900    0.00000000
                                                     0        2.1300000        3.03799400    0.00000000
                                      P - D
                                                     2        1.8231000       93.67560600    0.00000000
                                                     2        2.1249000     -189.88896800    0.00000000
                                                     2        2.5705000      110.24810400    0.00000000
                                                     1        1.7575000        4.19959600    0.00000000
                                                     0        6.7693000        5.00335600    0.00000000
   11         13            3
                                      D and up 
                                                     2        1.2211000       -0.53798100    0.00000000
                                                     2        3.3681000       -5.45975600    0.00000000
                                                     2        9.7500000      -16.65534300    0.00000000
                                                     1       29.2693000       -6.47521500    0.00000000
                                      S - D
                                                     2        1.5631000      -56.20521300    0.00000000
                                                     2        1.7712000      149.68995500    0.00000000
                                                     2        2.0623000      -91.45439400    0.00000000
                                                     1        3.3583000        3.72894900    0.00000000
                                                     0        2.1300000        3.03799400    0.00000000
                                      P - D
                                                     2        1.8231000       93.67560600    0.00000000
                                                     2        2.1249000     -189.88896800    0.00000000
                                                     2        2.5705000      110.24810400    0.00000000
                                                     1        1.7575000        4.19959600    0.00000000
                                                     0        6.7693000        5.00335600    0.00000000
   12         13            3
                                      D and up 
                                                     2        1.2211000       -0.53798100    0.00000000
                                                     2        3.3681000       -5.45975600    0.00000000
                                                     2        9.7500000      -16.65534300    0.00000000
                                                     1       29.2693000       -6.47521500    0.00000000
                                      S - D
                                                     2        1.5631000      -56.20521300    0.00000000
                                                     2        1.7712000      149.68995500    0.00000000
                                                     2        2.0623000      -91.45439400    0.00000000
                                                     1        3.3583000        3.72894900    0.00000000
                                                     0        2.1300000        3.03799400    0.00000000
                                      P - D
                                                     2        1.8231000       93.67560600    0.00000000
                                                     2        2.1249000     -189.88896800    0.00000000
                                                     2        2.5705000      110.24810400    0.00000000
                                                     1        1.7575000        4.19959600    0.00000000
                                                     0        6.7693000        5.00335600    0.00000000
   13         13            3
                                      D and up 
                                                     2        1.2211000       -0.53798100    0.00000000
                                                     2        3.3681000       -5.45975600    0.00000000
                                                     2        9.7500000      -16.65534300    0.00000000
                                                     1       29.2693000       -6.47521500    0.00000000
                                      S - D
                                                     2        1.5631000      -56.20521300    0.00000000
                                                     2        1.7712000      149.68995500    0.00000000
                                                     2        2.0623000      -91.45439400    0.00000000
                                                     1        3.3583000        3.72894900    0.00000000
                                                     0        2.1300000        3.03799400    0.00000000
                                      P - D
                                                     2        1.8231000       93.67560600    0.00000000
                                                     2        2.1249000     -189.88896800    0.00000000
                                                     2        2.5705000      110.24810400    0.00000000
                                                     1        1.7575000        4.19959600    0.00000000
                                                     0        6.7693000        5.00335600    0.00000000
   14         13            3
                                      D and up 
                                                     2        1.2211000       -0.53798100    0.00000000
                                                     2        3.3681000       -5.45975600    0.00000000
                                                     2        9.7500000      -16.65534300    0.00000000
                                                     1       29.2693000       -6.47521500    0.00000000
                                      S - D
                                                     2        1.5631000      -56.20521300    0.00000000
                                                     2        1.7712000      149.68995500    0.00000000
                                                     2        2.0623000      -91.45439400    0.00000000
                                                     1        3.3583000        3.72894900    0.00000000
                                                     0        2.1300000        3.03799400    0.00000000
                                      P - D
                                                     2        1.8231000       93.67560600    0.00000000
                                                     2        2.1249000     -189.88896800    0.00000000
                                                     2        2.5705000      110.24810400    0.00000000
                                                     1        1.7575000        4.19959600    0.00000000
                                                     0        6.7693000        5.00335600    0.00000000
   15         13            3
                                      D and up 
                                                     2        1.2211000       -0.53798100    0.00000000
                                                     2        3.3681000       -5.45975600    0.00000000
                                                     2        9.7500000      -16.65534300    0.00000000
                                                     1       29.2693000       -6.47521500    0.00000000
                                      S - D
                                                     2        1.5631000      -56.20521300    0.00000000
                                                     2        1.7712000      149.68995500    0.00000000
                                                     2        2.0623000      -91.45439400    0.00000000
                                                     1        3.3583000        3.72894900    0.00000000
                                                     0        2.1300000        3.03799400    0.00000000
                                      P - D
                                                     2        1.8231000       93.67560600    0.00000000
                                                     2        2.1249000     -189.88896800    0.00000000
                                                     2        2.5705000      110.24810400    0.00000000
                                                     1        1.7575000        4.19959600    0.00000000
                                                     0        6.7693000        5.00335600    0.00000000
   16         13            3
                                      D and up 
                                                     2        1.2211000       -0.53798100    0.00000000
                                                     2        3.3681000       -5.45975600    0.00000000
                                                     2        9.7500000      -16.65534300    0.00000000
                                                     1       29.2693000       -6.47521500    0.00000000
                                      S - D
                                                     2        1.5631000      -56.20521300    0.00000000
                                                     2        1.7712000      149.68995500    0.00000000
                                                     2        2.0623000      -91.45439400    0.00000000
                                                     1        3.3583000        3.72894900    0.00000000
                                                     0        2.1300000        3.03799400    0.00000000
                                      P - D
                                                     2        1.8231000       93.67560600    0.00000000
                                                     2        2.1249000     -189.88896800    0.00000000
                                                     2        2.5705000      110.24810400    0.00000000
                                                     1        1.7575000        4.19959600    0.00000000
                                                     0        6.7693000        5.00335600    0.00000000
   17         13            3
                                      D and up 
                                                     2        1.2211000       -0.53798100    0.00000000
                                                     2        3.3681000       -5.45975600    0.00000000
                                                     2        9.7500000      -16.65534300    0.00000000
                                                     1       29.2693000       -6.47521500    0.00000000
                                      S - D
                                                     2        1.5631000      -56.20521300    0.00000000
                                                     2        1.7712000      149.68995500    0.00000000
                                                     2        2.0623000      -91.45439400    0.00000000
                                                     1        3.3583000        3.72894900    0.00000000
                                                     0        2.1300000        3.03799400    0.00000000
                                      P - D
                                                     2        1.8231000       93.67560600    0.00000000
                                                     2        2.1249000     -189.88896800    0.00000000
                                                     2        2.5705000      110.24810400    0.00000000
                                                     1        1.7575000        4.19959600    0.00000000
                                                     0        6.7693000        5.00335600    0.00000000
   18         13            3
                                      D and up 
                                                     2        1.2211000       -0.53798100    0.00000000
                                                     2        3.3681000       -5.45975600    0.00000000
                                                     2        9.7500000      -16.65534300    0.00000000
                                                     1       29.2693000       -6.47521500    0.00000000
                                      S - D
                                                     2        1.5631000      -56.20521300    0.00000000
                                                     2        1.7712000      149.68995500    0.00000000
                                                     2        2.0623000      -91.45439400    0.00000000
                                                     1        3.3583000        3.72894900    0.00000000
                                                     0        2.1300000        3.03799400    0.00000000
                                      P - D
                                                     2        1.8231000       93.67560600    0.00000000
                                                     2        2.1249000     -189.88896800    0.00000000
                                                     2        2.5705000      110.24810400    0.00000000
                                                     1        1.7575000        4.19959600    0.00000000
                                                     0        6.7693000        5.00335600    0.00000000
   19         13            3
                                      D and up 
                                                     2        1.2211000       -0.53798100    0.00000000
                                                     2        3.3681000       -5.45975600    0.00000000
                                                     2        9.7500000      -16.65534300    0.00000000
                                                     1       29.2693000       -6.47521500    0.00000000
                                      S - D
                                                     2        1.5631000      -56.20521300    0.00000000
                                                     2        1.7712000      149.68995500    0.00000000
                                                     2        2.0623000      -91.45439400    0.00000000
                                                     1        3.3583000        3.72894900    0.00000000
                                                     0        2.1300000        3.03799400    0.00000000
                                      P - D
                                                     2        1.8231000       93.67560600    0.00000000
                                                     2        2.1249000     -189.88896800    0.00000000
                                                     2        2.5705000      110.24810400    0.00000000
                                                     1        1.7575000        4.19959600    0.00000000
                                                     0        6.7693000        5.00335600    0.00000000
   20         13            3
                                      D and up 
                                                     2        1.2211000       -0.53798100    0.00000000
                                                     2        3.3681000       -5.45975600    0.00000000
                                                     2        9.7500000      -16.65534300    0.00000000
                                                     1       29.2693000       -6.47521500    0.00000000
                                      S - D
                                                     2        1.5631000      -56.20521300    0.00000000
                                                     2        1.7712000      149.68995500    0.00000000
                                                     2        2.0623000      -91.45439400    0.00000000
                                                     1        3.3583000        3.72894900    0.00000000
                                                     0        2.1300000        3.03799400    0.00000000
                                      P - D
                                                     2        1.8231000       93.67560600    0.00000000
                                                     2        2.1249000     -189.88896800    0.00000000
                                                     2        2.5705000      110.24810400    0.00000000
                                                     1        1.7575000        4.19959600    0.00000000
                                                     0        6.7693000        5.00335600    0.00000000
   21         13            3
                                      D and up 
                                                     2        1.2211000       -0.53798100    0.00000000
                                                     2        3.3681000       -5.45975600    0.00000000
                                                     2        9.7500000      -16.65534300    0.00000000
                                                     1       29.2693000       -6.47521500    0.00000000
                                      S - D
                                                     2        1.5631000      -56.20521300    0.00000000
                                                     2        1.7712000      149.68995500    0.00000000
                                                     2        2.0623000      -91.45439400    0.00000000
                                                     1        3.3583000        3.72894900    0.00000000
                                                     0        2.1300000        3.03799400    0.00000000
                                      P - D
                                                     2        1.8231000       93.67560600    0.00000000
                                                     2        2.1249000     -189.88896800    0.00000000
                                                     2        2.5705000      110.24810400    0.00000000
                                                     1        1.7575000        4.19959600    0.00000000
                                                     0        6.7693000        5.00335600    0.00000000
   22         13            3
                                      D and up 
                                                     2        1.2211000       -0.53798100    0.00000000
                                                     2        3.3681000       -5.45975600    0.00000000
                                                     2        9.7500000      -16.65534300    0.00000000
                                                     1       29.2693000       -6.47521500    0.00000000
                                      S - D
                                                     2        1.5631000      -56.20521300    0.00000000
                                                     2        1.7712000      149.68995500    0.00000000
                                                     2        2.0623000      -91.45439400    0.00000000
                                                     1        3.3583000        3.72894900    0.00000000
                                                     0        2.1300000        3.03799400    0.00000000
                                      P - D
                                                     2        1.8231000       93.67560600    0.00000000
                                                     2        2.1249000     -189.88896800    0.00000000
                                                     2        2.5705000      110.24810400    0.00000000
                                                     1        1.7575000        4.19959600    0.00000000
                                                     0        6.7693000        5.00335600    0.00000000
   23         13            3
                                      D and up 
                                                     2        1.2211000       -0.53798100    0.00000000
                                                     2        3.3681000       -5.45975600    0.00000000
                                                     2        9.7500000      -16.65534300    0.00000000
                                                     1       29.2693000       -6.47521500    0.00000000
                                      S - D
                                                     2        1.5631000      -56.20521300    0.00000000
                                                     2        1.7712000      149.68995500    0.00000000
                                                     2        2.0623000      -91.45439400    0.00000000
                                                     1        3.3583000        3.72894900    0.00000000
                                                     0        2.1300000        3.03799400    0.00000000
                                      P - D
                                                     2        1.8231000       93.67560600    0.00000000
                                                     2        2.1249000     -189.88896800    0.00000000
                                                     2        2.5705000      110.24810400    0.00000000
                                                     1        1.7575000        4.19959600    0.00000000
                                                     0        6.7693000        5.00335600    0.00000000
   24         13            3
                                      D and up 
                                                     2        1.2211000       -0.53798100    0.00000000
                                                     2        3.3681000       -5.45975600    0.00000000
                                                     2        9.7500000      -16.65534300    0.00000000
                                                     1       29.2693000       -6.47521500    0.00000000
                                      S - D
                                                     2        1.5631000      -56.20521300    0.00000000
                                                     2        1.7712000      149.68995500    0.00000000
                                                     2        2.0623000      -91.45439400    0.00000000
                                                     1        3.3583000        3.72894900    0.00000000
                                                     0        2.1300000        3.03799400    0.00000000
                                      P - D
                                                     2        1.8231000       93.67560600    0.00000000
                                                     2        2.1249000     -189.88896800    0.00000000
                                                     2        2.5705000      110.24810400    0.00000000
                                                     1        1.7575000        4.19959600    0.00000000
                                                     0        6.7693000        5.00335600    0.00000000
   25         13            3
                                      D and up 
                                                     2        1.2211000       -0.53798100    0.00000000
                                                     2        3.3681000       -5.45975600    0.00000000
                                                     2        9.7500000      -16.65534300    0.00000000
                                                     1       29.2693000       -6.47521500    0.00000000
                                      S - D
                                                     2        1.5631000      -56.20521300    0.00000000
                                                     2        1.7712000      149.68995500    0.00000000
                                                     2        2.0623000      -91.45439400    0.00000000
                                                     1        3.3583000        3.72894900    0.00000000
                                                     0        2.1300000        3.03799400    0.00000000
                                      P - D
                                                     2        1.8231000       93.67560600    0.00000000
                                                     2        2.1249000     -189.88896800    0.00000000
                                                     2        2.5705000      110.24810400    0.00000000
                                                     1        1.7575000        4.19959600    0.00000000
                                                     0        6.7693000        5.00335600    0.00000000
   26         13            3
                                      D and up 
                                                     2        1.2211000       -0.53798100    0.00000000
                                                     2        3.3681000       -5.45975600    0.00000000
                                                     2        9.7500000      -16.65534300    0.00000000
                                                     1       29.2693000       -6.47521500    0.00000000
                                      S - D
                                                     2        1.5631000      -56.20521300    0.00000000
                                                     2        1.7712000      149.68995500    0.00000000
                                                     2        2.0623000      -91.45439400    0.00000000
                                                     1        3.3583000        3.72894900    0.00000000
                                                     0        2.1300000        3.03799400    0.00000000
                                      P - D
                                                     2        1.8231000       93.67560600    0.00000000
                                                     2        2.1249000     -189.88896800    0.00000000
                                                     2        2.5705000      110.24810400    0.00000000
                                                     1        1.7575000        4.19959600    0.00000000
                                                     0        6.7693000        5.00335600    0.00000000
   27         13            3
                                      D and up 
                                                     2        1.2211000       -0.53798100    0.00000000
                                                     2        3.3681000       -5.45975600    0.00000000
                                                     2        9.7500000      -16.65534300    0.00000000
                                                     1       29.2693000       -6.47521500    0.00000000
                                      S - D
                                                     2        1.5631000      -56.20521300    0.00000000
                                                     2        1.7712000      149.68995500    0.00000000
                                                     2        2.0623000      -91.45439400    0.00000000
                                                     1        3.3583000        3.72894900    0.00000000
                                                     0        2.1300000        3.03799400    0.00000000
                                      P - D
                                                     2        1.8231000       93.67560600    0.00000000
                                                     2        2.1249000     -189.88896800    0.00000000
                                                     2        2.5705000      110.24810400    0.00000000
                                                     1        1.7575000        4.19959600    0.00000000
                                                     0        6.7693000        5.00335600    0.00000000
   28         13            3
                                      D and up 
                                                     2        1.2211000       -0.53798100    0.00000000
                                                     2        3.3681000       -5.45975600    0.00000000
                                                     2        9.7500000      -16.65534300    0.00000000
                                                     1       29.2693000       -6.47521500    0.00000000
                                      S - D
                                                     2        1.5631000      -56.20521300    0.00000000
                                                     2        1.7712000      149.68995500    0.00000000
                                                     2        2.0623000      -91.45439400    0.00000000
                                                     1        3.3583000        3.72894900    0.00000000
                                                     0        2.1300000        3.03799400    0.00000000
                                      P - D
                                                     2        1.8231000       93.67560600    0.00000000
                                                     2        2.1249000     -189.88896800    0.00000000
                                                     2        2.5705000      110.24810400    0.00000000
                                                     1        1.7575000        4.19959600    0.00000000
                                                     0        6.7693000        5.00335600    0.00000000
 ======================================================================================================
 Ernie: Thresh=  0.10000D-02 Tol=  0.10000D-05 Strict=F.
 There are    20 symmetry adapted cartesian basis functions of AG  symmetry.
 There are     8 symmetry adapted cartesian basis functions of B1G symmetry.
 There are    14 symmetry adapted cartesian basis functions of B2G symmetry.
 There are    14 symmetry adapted cartesian basis functions of B3G symmetry.
 There are     8 symmetry adapted cartesian basis functions of AU  symmetry.
 There are    20 symmetry adapted cartesian basis functions of B1U symmetry.
 There are    14 symmetry adapted cartesian basis functions of B2U symmetry.
 There are    14 symmetry adapted cartesian basis functions of B3U symmetry.
 There are    20 symmetry adapted basis functions of AG  symmetry.
 There are     8 symmetry adapted basis functions of B1G symmetry.
 There are    14 symmetry adapted basis functions of B2G symmetry.
 There are    14 symmetry adapted basis functions of B3G symmetry.
 There are     8 symmetry adapted basis functions of AU  symmetry.
 There are    20 symmetry adapted basis functions of B1U symmetry.
 There are    14 symmetry adapted basis functions of B2U symmetry.
 There are    14 symmetry adapted basis functions of B3U symmetry.
   112 basis functions,   448 primitive gaussians,   112 cartesian basis functions
    42 alpha electrons       42 beta electrons
       nuclear repulsion energy       312.0036595716 Hartrees.
 IExCor=  205 DFT=T Ex=S Corr=VWN ExCW=0 ScaHFX=  0.000000
 ScaDFX=  1.000000  1.000000  1.000000  1.000000 ScalE2=  1.000000  1.000000
 IRadAn=      0 IRanWt=     -1 IRanGd=            0 ICorTp=0 IEmpDi=  4
 NAtoms=   28 NActive=   28 NUniq=    5 SFac= 4.00D+00 NAtFMM=   60 NAOKFM=F Big=F
 Integral buffers will be    131072 words long.
 Raffenetti 2 integral format.
 Two-electron integral symmetry is turned on.
 Leave Link  301 at Fri May 14 13:06:30 2021, MaxMem=   131072000 cpu:         0.1
 (Enter /home/palacios/gaussian/g09/l302.exe)
 NPDir=0 NMtPBC=     1 NCelOv=     1 NCel=       1 NClECP=     1 NCelD=      1
         NCelK=      1 NCelE2=     1 NClLst=     1 CellRange=     0.0.
 One-electron integrals computed using PRISM.
 One-electron integral symmetry used in STVInt
  16 Symmetry operations used in ECPInt.
 ECPInt:  NShTT=    1596 NPrTT=   25536 LenC2=    1597 LenP2D=   17902.
 LDataN:  DoStor=T MaxTD1= 3 Len=   28
 NBasis=   112 RedAO= T EigKep=  6.62D-02  NBF=    20     8    14    14     8    20    14    14
 NBsUse=   112 1.00D-06 EigRej= -1.00D+00 NBFU=    20     8    14    14     8    20    14    14
 Precomputing XC quadrature grid using
 IXCGrd= 4 IRadAn=           0 IRanWt=          -1 IRanGd=           0 AccXCQ= 0.00D+00.
 Generated NRdTot=       0 NPtTot=           0 NUsed=           0 NTot=          32
 NSgBfM=   112   112   112   112   112 MxSgAt=    28 MxSgA2=    28.
 Leave Link  302 at Fri May 14 13:06:31 2021, MaxMem=   131072000 cpu:         4.9
 (Enter /home/palacios/gaussian/g09/l303.exe)
 DipDrv:  MaxL=1.
 Leave Link  303 at Fri May 14 13:06:31 2021, MaxMem=   131072000 cpu:         0.1
 (Enter /home/palacios/gaussian/g09/l401.exe)
 ExpMin= 5.38D-02 ExpMax= 9.35D+00 ExpMxC= 1.58D+00 IAcc=2 IRadAn=         4 AccDes= 0.00D+00
 Harris functional with IExCor=  205 and IRadAn=       4 diagonalized for initial guess.
 HarFok:  IExCor=  205 AccDes= 0.00D+00 IRadAn=         4 IDoV= 1 UseB2=F ITyADJ=14
 ICtDFT=  3500011 ScaDFX=  1.000000  1.000000  1.000000  1.000000
 FoFCou: FMM=F IPFlag=           0 FMFlag=      100000 FMFlg1=           0
         NFxFlg=           0 DoJE=T BraDBF=F KetDBF=T FulRan=T
         wScrn=  0.000000 ICntrl=     500 IOpCl=  0 I1Cent=   200000004 NGrid=           0
         NMat0=    1 NMatS0=      1 NMatT0=    0 NMatD0=    1 NMtDS0=    0 NMtDT0=    0
 Petite list used in FoFCou.
 Harris En= -56.9538190635594    
 JPrj=0 DoOrth=F DoCkMO=F.
 Initial guess orbital symmetries:
       Occupied  (A1G) (A2U) (EU) (EU) (EG) (EG) (A1G) (A2U) (B2U)
                 (B1G) (B2G) (B1U) (A1G) (A2U) (EG) (EG) (EU) (EU)
                 (EG) (EG) (EU) (EU) (A1G) (A2U) (B1G) (B2U) (EU)
                 (EU) (EG) (EG) (A1G) (A2U) (B2G) (B1U) (A1G) (A2G)
                 (A1U) (EU) (EU) (A2U) (EG) (EG)
       Virtual   (A1G) (B1G) (B2U) (EU) (EU) (EG) (EG) (A2U) (EU)
                 (EU) (EG) (EG) (B2G) (B1U) (B1G) (B2U) (A1G) (A2U)
                 (EU) (EU) (EG) (EG) (A1G) (A2U) (EU) (EU) (EG)
                 (EG) (B2G) (B1U) (EU) (EU) (A1G) (A2U) (EG) (EG)
                 (EU) (EU) (EG) (EG) (B1G) (A2G) (A1U) (B2U) (B2G)
                 (B1U) (A1G) (A2U) (EU) (EU) (B1G) (B2U) (EG) (EG)
                 (A1G) (A2G) (A1U) (A2U) (EU) (EU) (EG) (EG) (EU)
                 (EU) (EG) (EG) (A1G) (A2U) (B1G) (B2U)
 The electronic state of the initial guess is 1-A1G.
 Leave Link  401 at Fri May 14 13:06:31 2021, MaxMem=   131072000 cpu:         1.0
 (Enter ../../bin/l502.exe)
 Closed shell SCF:
 Using DIIS extrapolation, IDIIS=  1040.
 Integral symmetry usage will be decided dynamically.
 Keep J ints in memory in symmetry-blocked form, NReq=22622258.
 IVT=       59402 IEndB=       59402 NGot=   131072000 MDV=   128474811
 LenX=   128474811 LenY=   128461826
 Requested convergence on RMS density matrix=1.00D-05 within 128 cycles.
 Requested convergence on MAX density matrix=1.00D-03.
 Requested convergence on             energy=1.00D-03.
 No special actions if energy rises.
 FoFCou: FMM=F IPFlag=           0 FMFlag=           0 FMFlg1=           0
         NFxFlg=           0 DoJE=F BraDBF=F KetDBF=F FulRan=T
         wScrn=  0.000000 ICntrl=     600 IOpCl=  0 I1Cent=           0 NGrid=           0
         NMat0=    1 NMatS0=   6328 NMatT0=    0 NMatD0=    1 NMtDS0=    0 NMtDT0=    0
 Petite list used in FoFCou.
 Integral accuracy reduced to 1.0D-05 until final iterations.

 Cycle   1  Pass 0  IDiag  1:
 
  ****************************************************************** 
  ***                                                            *** 
  ***                      A l i c a n t e                       *** 
  ***                      N a n o                               *** 
  ***                      T r a n s p o r t                     *** 
  ***                      G 0 9                                 *** 
  ***                                                            *** 
  ****************************************************************** 
  ***                     Version: 2.5.2                         *** 
  ****************************************************************** 
  *  Copyright (c) by                                              * 
  *                                                                * 
  *  Juan Jose Palacios (1)                                        * 
  *  David Jacob (2)                                               * 
  *  Maria Soriano (1,5)                                           * 
  *  Angel J. Perez-Jimenez (3)                                    * 
  *  Emilio SanFabian (3)                                          * 
  *  Jose Antonio Antonio Verges (4)                               * 
  *  Enrique Louis (5)                                             * 
  *  Wynand Dednam (5)                                             * 
  *                                                                * 
  * (1) Departamento de Fisica de la Materia Condensada            * 
  *     Universidad Autonoma de Madrid                             * 
  *     28049 Madrid (SPAIN)                                       * 
  * (2) Theory Department                                          * 
  *     Max-Planck-Institute for Microstructure Physics            * 
  *     Halle, 06120 (GERMANY)                                     * 
  * (3) Departamento de Quimica Fisica                             * 
  *     Universidad de Alicante                                    * 
  *     03690 Alicante (SPAIN)                                     * 
  * (4) Insto. de Ciencias de Materiales de Madrid (ICMM)          * 
  *     Consejo Superior de Investigacion y Ciencia (CSIC)         * 
  *     28049 Madrid (SPAIN)                                       * 
  * (5) Departamento de Fisica Aplicada                            * 
  *     Universidad de Alicante                                    * 
  *     03690 Alicante (SPAIN)                                     * 
  *                                                                * 
  ****************************************************************** 
 
  ****************************************************************** 
  *                                                                * 
  *              Initializing ANT.G09 modules                      * 
  *                                                                * 
  ****************************************************************** 
 
 Scanning Al9-Al4-Al-Al-Al4-Al9.ant file for parameter specifications...
 Done.
 ****************************
 Basic calculation parameters
 ****************************
 ALPHA      =    2.9999999999999999E-002
 NPULAY     =                         5
 CHARGEACC  =    1.0000000000000000E-004  %
 FERMIACC   =    1.0000000000000000E-004  %
 PACC       =    9.9999999999999995E-007  %
 FULLACC    =   F
 MAX        =                        10
 SELFACC    =    9.9999999999999995E-007
 SMALL      =    0.1000000000000000     
 SMALLD     =    0.1000000000000000       A
 BIASVOLT   =     0.000000000000000       V
 QEXCESS    =     0.000000000000000      electrons
 ETA        =    1.0000000000000000E-010
 GLUE       =    0.1000000000000000     
 FERMISTART =    -5.000000000000000       eV
 SOC        =   F
 SOCFAC     =     0.000000000000000     
 SOC_CFF_P  =     0.000000000000000       eV
 SOC_CFF_D  =     0.000000000000000       eV
 SOC_CFF_F  =     0.000000000000000       eV
 ROT        =   F
 THETA      =     0.000000000000000       degrees
 PHI        =     0.000000000000000       degrees
 SL         =    1.0000000000000000E-003
 DMIMAG     =   F
 FMIXING    =   F
 ******************
 1D lead parameters
 ******************
 DEVFILE                                                                                             
  = 
 device.dev                                                                                          
 LEAD1FILE                                                                                           
  = 
 lead1.elc                                                                                           
 LEAD2FILE                                                                                           
  = 
 lead2.elc                                                                                           
 DEVXYZ                                                                                              
  = 
 device.xyz                                                                                          
 LEAD1XYZ                                                                                            
  = 
 lead1.xyz                                                                                           
 LEAD2XYZ                                                                                            
  = 
 lead2.xyz                                                                                           
 ************************
 Bethe lattice parameters
 ************************
 TYPE1      = BETHE     
 TYPE2      = BETHE     
 BLPAR1     = Papacon             
 BLPAR2     = Papacon             
 NEMBED1    = ? 
 NEMBED2    = ? 
 NPC        =                         1
 NATOMEL1   = ? 
 NATOMEL2   = ? 
 NBULKLEAD1 =                         1
 NBULKLEAD2 = ? 
 OVERLAP    = System Overlap
 *************************
 Spin transport parameters
 *************************
 SWOFFSPL   =    1.0000000000000000E-003
 NSPINLOCK  =                         0
 NALPHA     =                        -1
 NBETA      =                        -1
 DU         =   F
 UD         =   F
 DD         =   F
 MRSTART    =                         0
 SPINDEL    =   F
 SPINEDIT   =                         0
 SOCFACATOM =                         0
 SPINROTATO =                         0
 SOCEDIT    =                         0
 ***********************
 Correlations parameters
 ***********************
 CORRBLOCKS =                         0
 PORTHO     =   F
 HYBFUNC    =   F
 DFT+U      =   F
 DIAGCORRBL =   F
 *****************
 Output parameters
 *****************
 HAMILTON   =   F
 MULLIKEN   =   F
 HTRANSM    =   F
 ESTEP      =    1.0000000000000000E-002
 DOSENERGY  =     0.000000000000000     
 EW1        =    -15.00000000000000     
 EW2        =     15.00000000000000     
 LDOS_BEG   =                        14
 LDOS_END   =                        14
 RTM_BEG    =                         1
 RTM_END    =                         0
 NCHANNELS  =                         0
[...]
 Fermi energy=  -5.74153  +/-  0.00004
 
 Number of alpha electrons:   42.00000
 Number of beta electrons:    42.00000
 Total number of electrons:    84.00000
 -----------------------------------------------
 -------------------------------------
 ---  Mulliken population analysis ---
 -------------------------------------
 ----------------------
 Charges in electrode 1
 ----------------------
 Atom:   1  El.dens:  2.9392
 Atom:   2  El.dens:  2.9392
 Atom:   3  El.dens:  3.0394
 Atom:   4  El.dens:  3.0382
 Atom:   5  El.dens:  3.0382
 Atom:   6  El.dens:  3.0382
 Atom:   7  El.dens:  2.9392
 Atom:   8  El.dens:  3.0382
 Atom:   9  El.dens:  2.9392
 Atom:  10  El.dens:  3.0125
 Atom:  11  El.dens:  3.0125
 Atom:  12  El.dens:  3.0125
 Atom:  13  El.dens:  3.0125
 Atom:  14  El.dens:  3.0010
 ---------------------------------------------------------
 Total num. of electrons in electrode 1:    41.99999950460300     
 ---------------------------------------------------------
 ----------------------------------------------------
 Total num. of electrons in molecule:    0.000000000000000     
 ----------------------------------------------------
 ----------------------
 Charges in electrode 2
 ----------------------
 Atom:  15  El.dens:  3.0010
 Atom:  16  El.dens:  3.0125
 Atom:  17  El.dens:  3.0125
 Atom:  18  El.dens:  3.0125
 Atom:  19  El.dens:  3.0125
 Atom:  20  El.dens:  2.9392
 Atom:  21  El.dens:  3.0382
 Atom:  22  El.dens:  2.9392
 Atom:  23  El.dens:  3.0382
 Atom:  24  El.dens:  3.0382
 Atom:  25  El.dens:  3.0382
 Atom:  26  El.dens:  3.0394
 Atom:  27  El.dens:  2.9392
 Atom:  28  El.dens:  2.9392
 ---------------------------------------------------------
 Total num. of electrons in electrode 2:    41.99999950460300     
 ---------------------------------------------------------
  ----------------- End of ANT.G09 ------------------- 
 Leave Link  502 at Fri May 14 13:07:33 2021, MaxMem=   131072000 cpu:       179.1
 (Enter /home/palacios/gaussian/g09/l601.exe)
 Copying SCF densities to generalized density rwf, IOpCl= 0 IROHF=0.

 **********************************************************************

            Population analysis using the SCF density.

 **********************************************************************

 Orbital symmetries:
       Occupied  (A1G) (A2U) (EU) (EU) (EG) (EG) (A1G) (A2U) (B2U)
                 (B1G) (B2G) (B1U) (A1G) (A2U) (EG) (EG) (EU) (EU)
                 (EG) (EG) (EU) (EU) (A1G) (A2U) (B1G) (B2U) (EU)
                 (EU) (EG) (EG) (A1G) (A2U) (B2G) (B1U) (A1G) (A2G)
                 (A1U) (EU) (EU) (A2U) (EG) (EG)
       Virtual   (A1G) (B1G) (B2U) (EU) (EU) (EG) (EG) (A2U) (EU)
                 (EU) (EG) (EG) (B2G) (B1U) (B1G) (B2U) (A1G) (A2U)
                 (EU) (EU) (EG) (EG) (A1G) (A2U) (EU) (EU) (EG)
                 (EG) (B2G) (B1U) (EU) (EU) (A1G) (A2U) (EG) (EG)
                 (EU) (EU) (EG) (EG) (B1G) (A2G) (A1U) (B2U) (B2G)
                 (B1U) (A1G) (A2U) (EU) (EU) (B1G) (B2U) (EG) (EG)
                 (A1G) (A2G) (A1U) (A2U) (EU) (EU) (EG) (EG) (EU)
                 (EU) (EG) (EG) (A1G) (A2U) (B1G) (B2U)
 The electronic state is 1-A1G.
 Alpha  occ. eigenvalues --   -0.52889  -0.52884  -0.45897  -0.45897  -0.45897
 Alpha  occ. eigenvalues --   -0.45897  -0.42261  -0.42157  -0.39191  -0.39189
 Alpha  occ. eigenvalues --   -0.36594  -0.36594  -0.36391  -0.36327  -0.33528
 Alpha  occ. eigenvalues --   -0.33528  -0.33522  -0.33522  -0.30162  -0.30162
 Alpha  occ. eigenvalues --   -0.30157  -0.30157  -0.29906  -0.29066  -0.24806
 Alpha  occ. eigenvalues --   -0.24802  -0.24434  -0.24434  -0.24402  -0.24402
 Alpha  occ. eigenvalues --   -0.22999  -0.22566  -0.22120  -0.22111  -0.20978
 Alpha  occ. eigenvalues --   -0.20533  -0.20533  -0.20250  -0.20250  -0.20154
 Alpha  occ. eigenvalues --   -0.20096  -0.20096
 Alpha virt. eigenvalues --   -0.18868  -0.17673  -0.17653  -0.16596  -0.16596
 Alpha virt. eigenvalues --   -0.16483  -0.16483  -0.14766  -0.12934  -0.12934
 Alpha virt. eigenvalues --   -0.12893  -0.12893  -0.12610  -0.12610  -0.11274
 Alpha virt. eigenvalues --   -0.11204  -0.10430  -0.10116  -0.06470  -0.06470
 Alpha virt. eigenvalues --   -0.06322  -0.06322  -0.05988  -0.05881  -0.05563
 Alpha virt. eigenvalues --   -0.05563  -0.05432  -0.05432  -0.04071  -0.04043
 Alpha virt. eigenvalues --   -0.03365  -0.03365  -0.02415  -0.01471  -0.01052
 Alpha virt. eigenvalues --   -0.01052  -0.00577  -0.00577  -0.00513  -0.00513
 Alpha virt. eigenvalues --    0.00344   0.00380   0.00386   0.00462   0.01023
 Alpha virt. eigenvalues --    0.01034   0.05976   0.06012   0.07420   0.07420
 Alpha virt. eigenvalues --    0.07724   0.07733   0.07911   0.07911   0.07921
 Alpha virt. eigenvalues --    0.08777   0.08782   0.12519   0.17083   0.17083
 Alpha virt. eigenvalues --    0.17882   0.17882   0.19051   0.19051   0.19277
 Alpha virt. eigenvalues --    0.19277   0.23280   0.23630   0.24338   0.24349
          Condensed to atoms (all electrons):
               1          2          3          4          5          6
     1  Al   2.515334  -0.005886  -0.099871   0.252775   0.252775   0.002842
     2  Al  -0.005886   2.515334  -0.099871   0.252775   0.002842   0.252775
     3  Al  -0.099871  -0.099871   3.125267   0.144974   0.144974   0.144974
     4  Al   0.252775   0.252775   0.144974   2.697650  -0.120702  -0.120702
     5  Al   0.252775   0.002842   0.144974  -0.120702   2.697650  -0.003208
     6  Al   0.002842   0.252775   0.144974  -0.120702  -0.003208   2.697650
     7  Al  -0.005886  -0.000072  -0.099871   0.002842   0.252775   0.002842
     8  Al   0.002842   0.002842   0.144974  -0.003208  -0.120702  -0.120702
     9  Al  -0.000072  -0.005886  -0.099871   0.002842   0.002842   0.252775
    10  Al   0.110587  -0.043582  -0.033694   0.010046   0.010046  -0.026683
    11  Al  -0.043582   0.110587  -0.033694   0.010046  -0.026683   0.010046
    12  Al  -0.043582   0.006997  -0.033694  -0.026683   0.010046  -0.026683
    13  Al   0.006997  -0.043582  -0.033694  -0.026683  -0.026683   0.010046
    14  Al  -0.006637  -0.006637  -0.129728  -0.038652  -0.038652  -0.038652
    15  Al   0.000026   0.000026   0.000725   0.000126   0.000126   0.000126
    16  Al  -0.000003  -0.000000  -0.000000  -0.000002  -0.000002  -0.000001
    17  Al  -0.000000  -0.000003  -0.000000  -0.000002  -0.000001  -0.000002
    18  Al  -0.000000  -0.000000  -0.000000  -0.000001  -0.000002  -0.000001
    19  Al  -0.000000  -0.000000  -0.000000  -0.000001  -0.000001  -0.000002
    20  Al  -0.000000  -0.000000   0.000000   0.000000   0.000000   0.000000
    21  Al   0.000000   0.000000   0.000000   0.000000   0.000000   0.000000
    22  Al  -0.000000  -0.000000   0.000000   0.000000   0.000000   0.000000
    23  Al   0.000000   0.000000   0.000000   0.000000   0.000000   0.000000
    24  Al   0.000000   0.000000   0.000000   0.000000   0.000000   0.000000
    25  Al   0.000000   0.000000   0.000000   0.000000   0.000000   0.000000
    26  Al   0.000000   0.000000  -0.000000   0.000000   0.000000   0.000000
    27  Al  -0.000000  -0.000000   0.000000   0.000000   0.000000   0.000000
    28  Al  -0.000000  -0.000000   0.000000   0.000000   0.000000   0.000000
               7          8          9         10         11         12
     1  Al  -0.005886   0.002842  -0.000072   0.110587  -0.043582  -0.043582
     2  Al  -0.000072   0.002842  -0.005886  -0.043582   0.110587   0.006997
     3  Al  -0.099871   0.144974  -0.099871  -0.033694  -0.033694  -0.033694
     4  Al   0.002842  -0.003208   0.002842   0.010046   0.010046  -0.026683
     5  Al   0.252775  -0.120702   0.002842   0.010046  -0.026683   0.010046
     6  Al   0.002842  -0.120702   0.252775  -0.026683   0.010046  -0.026683
     7  Al   2.515334   0.252775  -0.005886  -0.043582   0.006997   0.110587
     8  Al   0.252775   2.697650   0.252775  -0.026683  -0.026683   0.010046
     9  Al  -0.005886   0.252775   2.515334   0.006997  -0.043582  -0.043582
    10  Al  -0.043582  -0.026683   0.006997   2.805457   0.112537   0.112537
    11  Al   0.006997  -0.026683  -0.043582   0.112537   2.805457  -0.181845
    12  Al   0.110587   0.010046  -0.043582   0.112537  -0.181845   2.805457
    13  Al  -0.043582   0.010046   0.110587  -0.181845   0.112537   0.112537
    14  Al  -0.006637  -0.038652  -0.006637   0.204751   0.204751   0.204751
    15  Al   0.000026   0.000126   0.000026  -0.003212  -0.003212  -0.003212
    16  Al  -0.000000  -0.000001  -0.000000  -0.000040   0.000017   0.000017
    17  Al  -0.000000  -0.000001  -0.000000   0.000017  -0.000040   0.000030
    18  Al  -0.000003  -0.000002  -0.000000   0.000017   0.000030  -0.000040
    19  Al  -0.000000  -0.000002  -0.000003   0.000030   0.000017   0.000017
    20  Al  -0.000000   0.000000  -0.000000  -0.000003  -0.000000  -0.000000
    21  Al   0.000000   0.000000   0.000000  -0.000002  -0.000002  -0.000001
    22  Al  -0.000000   0.000000  -0.000000  -0.000000  -0.000003  -0.000000
    23  Al   0.000000   0.000000   0.000000  -0.000002  -0.000001  -0.000002
    24  Al   0.000000   0.000000   0.000000  -0.000001  -0.000002  -0.000001
    25  Al   0.000000   0.000000   0.000000  -0.000001  -0.000001  -0.000002
    26  Al   0.000000   0.000000   0.000000  -0.000000  -0.000000  -0.000000
    27  Al  -0.000000   0.000000  -0.000000  -0.000000  -0.000000  -0.000003
    28  Al  -0.000000   0.000000  -0.000000  -0.000000  -0.000000  -0.000000
              13         14         15         16         17         18
     1  Al   0.006997  -0.006637   0.000026  -0.000003  -0.000000  -0.000000
     2  Al  -0.043582  -0.006637   0.000026  -0.000000  -0.000003  -0.000000
     3  Al  -0.033694  -0.129728   0.000725  -0.000000  -0.000000  -0.000000
     4  Al  -0.026683  -0.038652   0.000126  -0.000002  -0.000002  -0.000001
     5  Al  -0.026683  -0.038652   0.000126  -0.000002  -0.000001  -0.000002
     6  Al   0.010046  -0.038652   0.000126  -0.000001  -0.000002  -0.000001
     7  Al  -0.043582  -0.006637   0.000026  -0.000000  -0.000000  -0.000003
     8  Al   0.010046  -0.038652   0.000126  -0.000001  -0.000001  -0.000002
     9  Al   0.110587  -0.006637   0.000026  -0.000000  -0.000000  -0.000000
    10  Al  -0.181845   0.204751  -0.003212  -0.000040   0.000017   0.000017
    11  Al   0.112537   0.204751  -0.003212   0.000017  -0.000040   0.000030
    12  Al   0.112537   0.204751  -0.003212   0.000017   0.000030  -0.000040
    13  Al   2.805457   0.204751  -0.003212   0.000030   0.000017   0.000017
    14  Al   0.204751   2.365033   0.135953  -0.003212  -0.003212  -0.003212
    15  Al  -0.003212   0.135953   2.365033   0.204751   0.204751   0.204751
    16  Al   0.000030  -0.003212   0.204751   2.805457   0.112537   0.112537
    17  Al   0.000017  -0.003212   0.204751   0.112537   2.805457  -0.181845
    18  Al   0.000017  -0.003212   0.204751   0.112537  -0.181845   2.805457
    19  Al  -0.000040  -0.003212   0.204751  -0.181845   0.112537   0.112537
    20  Al  -0.000000   0.000026  -0.006637   0.110587  -0.043582  -0.043582
    21  Al  -0.000001   0.000126  -0.038652   0.010046   0.010046  -0.026683
    22  Al  -0.000000   0.000026  -0.006637  -0.043582   0.110587   0.006997
    23  Al  -0.000001   0.000126  -0.038652   0.010046  -0.026683   0.010046
    24  Al  -0.000002   0.000126  -0.038652  -0.026683   0.010046  -0.026683
    25  Al  -0.000002   0.000126  -0.038652  -0.026683  -0.026683   0.010046
    26  Al  -0.000000   0.000725  -0.129728  -0.033694  -0.033694  -0.033694
    27  Al  -0.000000   0.000026  -0.006637  -0.043582   0.006997   0.110587
    28  Al  -0.000003   0.000026  -0.006637   0.006997  -0.043582  -0.043582
              19         20         21         22         23         24
     1  Al  -0.000000  -0.000000   0.000000  -0.000000   0.000000   0.000000
     2  Al  -0.000000  -0.000000   0.000000  -0.000000   0.000000   0.000000
     3  Al  -0.000000   0.000000   0.000000   0.000000   0.000000   0.000000
     4  Al  -0.000001   0.000000   0.000000   0.000000   0.000000   0.000000
     5  Al  -0.000001   0.000000   0.000000   0.000000   0.000000   0.000000
     6  Al  -0.000002   0.000000   0.000000   0.000000   0.000000   0.000000
     7  Al  -0.000000  -0.000000   0.000000  -0.000000   0.000000   0.000000
     8  Al  -0.000002   0.000000   0.000000   0.000000   0.000000   0.000000
     9  Al  -0.000003  -0.000000   0.000000  -0.000000   0.000000   0.000000
    10  Al   0.000030  -0.000003  -0.000002  -0.000000  -0.000002  -0.000001
    11  Al   0.000017  -0.000000  -0.000002  -0.000003  -0.000001  -0.000002
    12  Al   0.000017  -0.000000  -0.000001  -0.000000  -0.000002  -0.000001
    13  Al  -0.000040  -0.000000  -0.000001  -0.000000  -0.000001  -0.000002
    14  Al  -0.003212   0.000026   0.000126   0.000026   0.000126   0.000126
    15  Al   0.204751  -0.006637  -0.038652  -0.006637  -0.038652  -0.038652
    16  Al  -0.181845   0.110587   0.010046  -0.043582   0.010046  -0.026683
    17  Al   0.112537  -0.043582   0.010046   0.110587  -0.026683   0.010046
    18  Al   0.112537  -0.043582  -0.026683   0.006997   0.010046  -0.026683
    19  Al   2.805457   0.006997  -0.026683  -0.043582  -0.026683   0.010046
    20  Al   0.006997   2.515334   0.252775  -0.005886   0.252775   0.002842
    21  Al  -0.026683   0.252775   2.697650   0.252775  -0.120702  -0.120702
    22  Al  -0.043582  -0.005886   0.252775   2.515334   0.002842   0.252775
    23  Al  -0.026683   0.252775  -0.120702   0.002842   2.697650  -0.003208
    24  Al   0.010046   0.002842  -0.120702   0.252775  -0.003208   2.697650
    25  Al   0.010046   0.002842  -0.003208   0.002842  -0.120702  -0.120702
    26  Al  -0.033694  -0.099871   0.144974  -0.099871   0.144974   0.144974
    27  Al  -0.043582  -0.005886   0.002842  -0.000072   0.252775   0.002842
    28  Al   0.110587  -0.000072   0.002842  -0.005886   0.002842   0.252775
              25         26         27         28
     1  Al   0.000000   0.000000  -0.000000  -0.000000
     2  Al   0.000000   0.000000  -0.000000  -0.000000
     3  Al   0.000000  -0.000000   0.000000   0.000000
     4  Al   0.000000   0.000000   0.000000   0.000000
     5  Al   0.000000   0.000000   0.000000   0.000000
     6  Al   0.000000   0.000000   0.000000   0.000000
     7  Al   0.000000   0.000000  -0.000000  -0.000000
     8  Al   0.000000   0.000000   0.000000   0.000000
     9  Al   0.000000   0.000000  -0.000000  -0.000000
    10  Al  -0.000001  -0.000000  -0.000000  -0.000000
    11  Al  -0.000001  -0.000000  -0.000000  -0.000000
    12  Al  -0.000002  -0.000000  -0.000003  -0.000000
    13  Al  -0.000002  -0.000000  -0.000000  -0.000003
    14  Al   0.000126   0.000725   0.000026   0.000026
    15  Al  -0.038652  -0.129728  -0.006637  -0.006637
    16  Al  -0.026683  -0.033694  -0.043582   0.006997
    17  Al  -0.026683  -0.033694   0.006997  -0.043582
    18  Al   0.010046  -0.033694   0.110587  -0.043582
    19  Al   0.010046  -0.033694  -0.043582   0.110587
    20  Al   0.002842  -0.099871  -0.005886  -0.000072
    21  Al  -0.003208   0.144974   0.002842   0.002842
    22  Al   0.002842  -0.099871  -0.000072  -0.005886
    23  Al  -0.120702   0.144974   0.252775   0.002842
    24  Al  -0.120702   0.144974   0.002842   0.252775
    25  Al   2.697650   0.144974   0.252775   0.252775
    26  Al   0.144974   3.125267  -0.099871  -0.099871
    27  Al   0.252775  -0.099871   2.515334  -0.005886
    28  Al   0.252775  -0.099871  -0.005886   2.515334
 Mulliken charges:
               1
     1  Al   0.061344
     2  Al   0.061344
     3  Al  -0.041897
     4  Al  -0.037441
     5  Al  -0.037441
     6  Al  -0.037441
     7  Al   0.061344
     8  Al  -0.037441
     9  Al   0.061344
    10  Al  -0.013692
    11  Al  -0.013692
    12  Al  -0.013692
    13  Al  -0.013692
    14  Al   0.002408
    15  Al   0.002408
    16  Al  -0.013692
    17  Al  -0.013692
    18  Al  -0.013692
    19  Al  -0.013692
    20  Al   0.061344
    21  Al  -0.037441
    22  Al   0.061344
    23  Al  -0.037441
    24  Al  -0.037441
    25  Al  -0.037441
    26  Al  -0.041897
    27  Al   0.061344
    28  Al   0.061344
 Sum of Mulliken charges =   0.00271
 Mulliken charges with hydrogens summed into heavy atoms:
               1
     1  Al   0.061344
     2  Al   0.061344
     3  Al  -0.041897
     4  Al  -0.037441
     5  Al  -0.037441
     6  Al  -0.037441
     7  Al   0.061344
     8  Al  -0.037441
     9  Al   0.061344
    10  Al  -0.013692
    11  Al  -0.013692
    12  Al  -0.013692
    13  Al  -0.013692
    14  Al   0.002408
    15  Al   0.002408
    16  Al  -0.013692
    17  Al  -0.013692
    18  Al  -0.013692
    19  Al  -0.013692
    20  Al   0.061344
    21  Al  -0.037441
    22  Al   0.061344
    23  Al  -0.037441
    24  Al  -0.037441
    25  Al  -0.037441
    26  Al  -0.041897
    27  Al   0.061344
    28  Al   0.061344
 Electronic spatial extent (au):  <R**2>=          11644.3450
 Charge=              0.0027 electrons
 Dipole moment (field-independent basis, Debye):
    X=              0.0000    Y=             -0.0000    Z=              0.0000  Tot=              0.0000
 Quadrupole moment (field-independent basis, Debye-Ang):
   XX=           -358.3805   YY=           -358.3805   ZZ=           -420.3912
   XY=              0.0000   XZ=             -0.0000   YZ=             -0.0000
 Traceless Quadrupole moment (field-independent basis, Debye-Ang):
   XX=             20.6702   YY=             20.6702   ZZ=            -41.3404
   XY=              0.0000   XZ=             -0.0000   YZ=             -0.0000
 Octapole moment (field-independent basis, Debye-Ang**2):
  XXX=              0.0000  YYY=              0.0000  ZZZ=             -0.0000  XYY=             -0.0000
  XXY=             -0.0000  XXZ=             -0.0000  XZZ=              0.0000  YZZ=              0.0000
  YYZ=             -0.0000  XYZ=              0.0000
 Hexadecapole moment (field-independent basis, Debye-Ang**3):
 XXXX=          -9161.7196 YYYY=          -9161.7196 ZZZZ=         -69517.1928 XXXY=              0.0000
 XXXZ=              0.0000 YYYX=              0.0000 YYYZ=             -0.0000 ZZZX=              0.0000
 ZZZY=             -0.0000 XXYY=          -3611.2621 XXZZ=         -12277.3384 YYZZ=         -12277.3384
 XXYZ=             -0.0000 YYXZ=              0.0000 ZZXY=              0.0000
 N-N= 3.120036595716D+02 E-N=-7.145710434430D+02  KE= 1.960755120798D+01
 Symmetry AG   KE= 3.637200637109D+00
 Symmetry B1G  KE= 1.521753561550D+00
 Symmetry B2G  KE= 2.332654463303D+00
 Symmetry B3G  KE= 2.332654463303D+00
 Symmetry AU   KE= 1.522313332770D+00
 Symmetry B1U  KE= 3.642365116747D+00
 Symmetry B2U  KE= 2.309304816596D+00
 Symmetry B3U  KE= 2.309304816596D+00
 No NMR shielding tensors so no spin-rotation constants.
 Leave Link  601 at Fri May 14 13:07:33 2021, MaxMem=   131072000 cpu:         0.5
 (Enter /home/palacios/gaussian/g09/l9999.exe)
 1\1\GINC-ASUS\SP\RSVWN\Gen\Al28\PALACIOS\14-May-2021\0\\#p lsda/gen ps
 eudo=read Scf=(conver=5,dsymm,nodamp)\\Al9-Al4-Al-Al-Al4-Al9\\0,1\Al,0
 ,-4.,0.,-6.\Al,0,0.,4.,-6.\Al,0,0.,0.,-6.\Al,0,-2.,2.,-6.\Al,0,-2.,-2.
 ,-6.\Al,0,2.,2.,-6.\Al,0,0.,-4.,-6.\Al,0,2.,-2.,-6.\Al,0,4.,0.,-6.\Al,
 0,-2.,0.,-4.\Al,0,0.,2.,-4.\Al,0,0.,-2.,-4.\Al,0,2.,0.,-4.\Al,0,0.,0.,
 -2.\Al,0,0.,0.,2.\Al,0,-2.,0.,4.\Al,0,0.,2.,4.\Al,0,0.,-2.,4.\Al,0,2.,
 0.,4.\Al,0,-4.,0.,6.\Al,0,-2.,2.,6.\Al,0,0.,4.,6.\Al,0,-2.,-2.,6.\Al,0
 ,2.,2.,6.\Al,0,2.,-2.,6.\Al,0,0.,0.,6.\Al,0,0.,-4.,6.\Al,0,4.,0.,6.\\V
 ersion=ES64L-G09RevD.01\State=1-A1G\HF=-56.7805697\RMSD=2.278e-06\Dipo
 le=0.,0.,0.\Quadrupole=15.3677969,15.3677969,-30.7355938,0.,0.,0.\PG=D
 04H [C4(Al1Al1.Al1Al1),2SGV(Al8),2SGD(Al4)]\\@


 When cryptography is outlawed, bayl bhgynjf jvyy unir cevinpl.
 Job cpu time:       0 days  0 hours  3 minutes  5.8 seconds.
 File lengths (MBytes):  RWF=      7 Int=      0 D2E=      0 Chk=      1 Scr=      1
 Normal termination of Gaussian 09 at Fri May 14 13:07:33 2021.
