 Entering Gaussian System, Link 0=g09
 Input=Al9-Al4-C.gjf
 Output=Al9-Al4-C.log
 Initial command:
 /home/palacios/gaussian/g09/l1.exe "/home/palacios/scratch/Gau-25913.inp" -scrdir="/home/palacios/scratch/"
 Entering Link 1 = /home/palacios/gaussian/g09/l1.exe PID=     25915.
  
 Copyright (c) 1988,1990,1992,1993,1995,1998,2003,2009,2013,
            Gaussian, Inc.  All Rights Reserved.
  
 This is part of the Gaussian(R) 09 program.  It is based on
 the Gaussian(R) 03 system (copyright 2003, Gaussian, Inc.),
 the Gaussian(R) 98 system (copyright 1998, Gaussian, Inc.),
 the Gaussian(R) 94 system (copyright 1995, Gaussian, Inc.),
 the Gaussian 92(TM) system (copyright 1992, Gaussian, Inc.),
 the Gaussian 90(TM) system (copyright 1990, Gaussian, Inc.),
 the Gaussian 88(TM) system (copyright 1988, Gaussian, Inc.),
 the Gaussian 86(TM) system (copyright 1986, Carnegie Mellon
 University), and the Gaussian 82(TM) system (copyright 1983,
 Carnegie Mellon University). Gaussian is a federally registered
 trademark of Gaussian, Inc.
  
 This software contains proprietary and confidential information,
 including trade secrets, belonging to Gaussian, Inc.
  
 This software is provided under written license and may be
 used, copied, transmitted, or stored only in accord with that
 written license.
  
 The following legend is applicable only to US Government
 contracts under FAR:
  
                    RESTRICTED RIGHTS LEGEND
  
 Use, reproduction and disclosure by the US Government is
 subject to restrictions as set forth in subparagraphs (a)
 and (c) of the Commercial Computer Software - Restricted
 Rights clause in FAR 52.227-19.
  
 Gaussian, Inc.
 340 Quinnipiac St., Bldg. 40, Wallingford CT 06492
  
  
 ---------------------------------------------------------------
 Warning -- This program may not be used in any manner that
 competes with the business of Gaussian, Inc. or will provide
 assistance to any competitor of Gaussian, Inc.  The licensee
 of this program is prohibited from giving any competitor of
 Gaussian, Inc. access to this program.  By using this program,
 the user acknowledges that Gaussian, Inc. is engaged in the
 business of creating and licensing software in the field of
 computational chemistry and represents and warrants to the
 licensee that it is not a competitor of Gaussian, Inc. and that
 it will not use this program in any manner prohibited above.
 ---------------------------------------------------------------
  

 Cite this work as:
 Gaussian 09, Revision D.01,
 M. J. Frisch, G. W. Trucks, H. B. Schlegel, G. E. Scuseria, 
 M. A. Robb, J. R. Cheeseman, G. Scalmani, V. Barone, B. Mennucci, 
 G. A. Petersson, H. Nakatsuji, M. Caricato, X. Li, H. P. Hratchian, 
 A. F. Izmaylov, J. Bloino, G. Zheng, J. L. Sonnenberg, M. Hada, 
 M. Ehara, K. Toyota, R. Fukuda, J. Hasegawa, M. Ishida, T. Nakajima, 
 Y. Honda, O. Kitao, H. Nakai, T. Vreven, J. A. Montgomery, Jr., 
 J. E. Peralta, F. Ogliaro, M. Bearpark, J. J. Heyd, E. Brothers, 
 K. N. Kudin, V. N. Staroverov, T. Keith, R. Kobayashi, J. Normand, 
 K. Raghavachari, A. Rendell, J. C. Burant, S. S. Iyengar, J. Tomasi, 
 M. Cossi, N. Rega, J. M. Millam, M. Klene, J. E. Knox, J. B. Cross, 
 V. Bakken, C. Adamo, J. Jaramillo, R. Gomperts, R. E. Stratmann, 
 O. Yazyev, A. J. Austin, R. Cammi, C. Pomelli, J. W. Ochterski, 
 R. L. Martin, K. Morokuma, V. G. Zakrzewski, G. A. Voth, 
 P. Salvador, J. J. Dannenberg, S. Dapprich, A. D. Daniels, 
 O. Farkas, J. B. Foresman, J. V. Ortiz, J. Cioslowski, 
 and D. J. Fox, Gaussian, Inc., Wallingford CT, 2013.
 
 ******************************************
 Gaussian 09:  ES64L-G09RevD.01 24-Apr-2013
                10-Feb-2016 
 ******************************************
 %mem=1000MB
 %Subst L101 ../bin
 %Subst L502 ../bin
 %NProcShared=4
 Will use up to    4 processors via shared memory.
 ----------------------------------------------------------------------
 #p ublyp/gen pseudo=read Scf=(conver=6,nodamp) opt(z-matrix,maxcycle=1
 00,loose) nosymm
 ----------------------------------------------------------------------
 1/6=100,7=-1,10=7,14=-1,18=40,26=3,38=1/1,3;
 2/12=2,15=1,17=6,18=5,29=3,40=1/2;
 3/5=7,11=2,16=1,17=8,25=1,30=1,71=1,74=402,116=2/1,2,3;
 4//1;
 5/5=2,6=6,18=-2,38=5/2;
 6/7=2,8=2,9=2,10=2,28=1/1;
 7/29=1,30=1/1,2,3,16;
 1/6=100,7=-1,10=7,14=-1,18=40,26=3/3(2);
 2/15=1,29=3/2;
 99//99;
 2/15=1,29=3/2;
 3/5=7,6=1,11=2,16=1,17=8,25=1,30=1,71=1,74=402,82=7,116=2/1,2,3;
 4/5=5,16=3,69=1/1;
 5/5=2,6=6,18=-2,38=5/2;
 7/30=1/1,2,3,16;
 1/6=100,7=-1,14=-1,18=40,26=3/3(-5);
 2/15=1,29=3/2;
 6/7=2,8=2,9=2,10=2,19=2,28=1/1;
 99/9=1/99;
 Leave Link    1 at Wed Feb 10 14:54:55 2016, MaxMem=   131072000 cpu:         0.1
 (Enter ../bin/l101.exe)
 ---------
 Al9-Al4-C
 ---------
 Symbolic Z-matrix:
 Charge =  0 Multiplicity = 1
 Al                   0    -4.        0.       -6. 
 Al                   0     0.        4.       -6. 
 Al                   0     0.        0.       -6. 
 Al                   0    -2.        2.       -6. 
 Al                   0    -2.       -2.       -6. 
 Al                   0     2.        2.       -6. 
 Al                   0     0.       -4.       -6. 
 Al                   0     2.       -2.       -6. 
 Al                   0     4.        0.       -6. 
 Al                   0    -2.        0.       -4. 
 Al                   0     0.        2.       -4. 
 Al                   0     0.       -2.       -4. 
 Al                   0     2.        0.       -4. 
 Al                   0    x2       y2       z2
 C                    0    x1       y1       z1
       Variables:
  x1                    0.                       
  y1                    0.                       
  z1                   -1.                       
  x2                    0.                       
  y2                    0.                       
  z2                   -2.                       
 
 NAtoms=     15 NQM=       15 NQMF=       0 NMMI=      0 NMMIF=      0
                NMic=       0 NMicF=      0.
                    Isotopes and Nuclear Properties:
 (Nuclear quadrupole moments (NQMom) in fm**2, nuclear magnetic moments (NMagM)
  in nuclear magnetons)

  Atom         1           2           3           4           5           6           7           8           9          10
 IAtWgt=          27          27          27          27          27          27          27          27          27          27
 AtmWgt=  26.9815413  26.9815413  26.9815413  26.9815413  26.9815413  26.9815413  26.9815413  26.9815413  26.9815413  26.9815413
 NucSpn=           5           5           5           5           5           5           5           5           5           5
 AtZEff=   0.0000000   0.0000000   0.0000000   0.0000000   0.0000000   0.0000000   0.0000000   0.0000000   0.0000000   0.0000000
 NQMom=   14.6600000  14.6600000  14.6600000  14.6600000  14.6600000  14.6600000  14.6600000  14.6600000  14.6600000  14.6600000
 NMagM=    3.6415040   3.6415040   3.6415040   3.6415040   3.6415040   3.6415040   3.6415040   3.6415040   3.6415040   3.6415040
 AtZNuc=  13.0000000  13.0000000  13.0000000  13.0000000  13.0000000  13.0000000  13.0000000  13.0000000  13.0000000  13.0000000

  Atom        11          12          13          14          15
 IAtWgt=          27          27          27          27          12
 AtmWgt=  26.9815413  26.9815413  26.9815413  26.9815413  12.0000000
 NucSpn=           5           5           5           5           0
 AtZEff=   0.0000000   0.0000000   0.0000000   0.0000000   0.0000000
 NQMom=   14.6600000  14.6600000  14.6600000  14.6600000   0.0000000
 NMagM=    3.6415040   3.6415040   3.6415040   3.6415040   0.0000000
 AtZNuc=  13.0000000  13.0000000  13.0000000  13.0000000   6.0000000
 Leave Link  101 at Wed Feb 10 14:54:55 2016, MaxMem=   131072000 cpu:         0.2
 (Enter /home/palacios/gaussian/g09/l103.exe)

 GradGradGradGradGradGradGradGradGradGradGradGradGradGradGradGradGradGrad
 Berny optimization.
 Initialization pass.
                       ----------------------------
                       !    Initial Parameters    !
                       ! (Angstroms and Degrees)  !
 ----------------------                            ----------------------
 !      Name          Value   Derivative information (Atomic Units)     !
 ------------------------------------------------------------------------
 !       x1          0.0      estimate D2E/DX2                          !
 !       y1          0.0      estimate D2E/DX2                          !
 !       z1         -1.0      estimate D2E/DX2                          !
 !       x2          0.0      estimate D2E/DX2                          !
 !       y2          0.0      estimate D2E/DX2                          !
 !       z2         -2.0      estimate D2E/DX2                          !
 ------------------------------------------------------------------------
 Trust Radius=3.00D-01 FncErr=1.00D-07 GrdErr=1.00D-06
 Number of steps in this run=    100 maximum allowed number of steps=    100.
 GradGradGradGradGradGradGradGradGradGradGradGradGradGradGradGradGradGrad

 Leave Link  103 at Wed Feb 10 14:54:55 2016, MaxMem=   131072000 cpu:         0.0
 (Enter /home/palacios/gaussian/g09/l202.exe)
 ---------------------------------------------------------------------------------------------------
                            Z-MATRIX (ANGSTROMS AND DEGREES)
   CD    Cent   Atom    N1       Length/X        N2       Alpha/Y        N3        Beta/Z          J
 ---------------------------------------------------------------------------------------------------
      1      1  Al       0  -4.000000          0.000000         -6.000000
      2      2  Al       0   0.000000          4.000000         -6.000000
      3      3  Al       0   0.000000          0.000000         -6.000000
      4      4  Al       0  -2.000000          2.000000         -6.000000
      5      5  Al       0  -2.000000         -2.000000         -6.000000
      6      6  Al       0   2.000000          2.000000         -6.000000
      7      7  Al       0   0.000000         -4.000000         -6.000000
      8      8  Al       0   2.000000         -2.000000         -6.000000
      9      9  Al       0   4.000000          0.000000         -6.000000
     10     10  Al       0  -2.000000          0.000000         -4.000000
     11     11  Al       0   0.000000          2.000000         -4.000000
     12     12  Al       0   0.000000         -2.000000         -4.000000
     13     13  Al       0   2.000000          0.000000         -4.000000
     14     14  Al       0   0.000000          0.000000         -2.000000
     15     15  C        0   0.000000          0.000000         -1.000000
 ---------------------------------------------------------------------------------------------------
                         Z-Matrix orientation:                         
 ---------------------------------------------------------------------
 Center     Atomic      Atomic             Coordinates (Angstroms)
 Number     Number       Type             X           Y           Z
 ---------------------------------------------------------------------
      1         13           0       -4.000000    0.000000   -6.000000
      2         13           0        0.000000    4.000000   -6.000000
      3         13           0        0.000000    0.000000   -6.000000
      4         13           0       -2.000000    2.000000   -6.000000
      5         13           0       -2.000000   -2.000000   -6.000000
      6         13           0        2.000000    2.000000   -6.000000
      7         13           0        0.000000   -4.000000   -6.000000
      8         13           0        2.000000   -2.000000   -6.000000
      9         13           0        4.000000    0.000000   -6.000000
     10         13           0       -2.000000    0.000000   -4.000000
     11         13           0        0.000000    2.000000   -4.000000
     12         13           0        0.000000   -2.000000   -4.000000
     13         13           0        2.000000    0.000000   -4.000000
     14         13           0        0.000000    0.000000   -2.000000
     15          6           0        0.000000    0.000000   -1.000000
 ---------------------------------------------------------------------
                    Distance matrix (angstroms):
                    1          2          3          4          5
     1  Al   0.000000
     2  Al   5.656854   0.000000
     3  Al   4.000000   4.000000   0.000000
     4  Al   2.828427   2.828427   2.828427   0.000000
     5  Al   2.828427   6.324555   2.828427   4.000000   0.000000
     6  Al   6.324555   2.828427   2.828427   4.000000   5.656854
     7  Al   5.656854   8.000000   4.000000   6.324555   2.828427
     8  Al   6.324555   6.324555   2.828427   5.656854   4.000000
     9  Al   8.000000   5.656854   4.000000   6.324555   6.324555
    10  Al   2.828427   4.898979   2.828427   2.828427   2.828427
    11  Al   4.898979   2.828427   2.828427   2.828427   4.898979
    12  Al   4.898979   6.324555   2.828427   4.898979   2.828427
    13  Al   6.324555   4.898979   2.828427   4.898979   4.898979
    14  Al   5.656854   5.656854   4.000000   4.898979   4.898979
    15  C    6.403124   6.403124   5.000000   5.744563   5.744563
                    6          7          8          9         10
     6  Al   0.000000
     7  Al   6.324555   0.000000
     8  Al   4.000000   2.828427   0.000000
     9  Al   2.828427   5.656854   2.828427   0.000000
    10  Al   4.898979   4.898979   4.898979   6.324555   0.000000
    11  Al   2.828427   6.324555   4.898979   4.898979   2.828427
    12  Al   4.898979   2.828427   2.828427   4.898979   2.828427
    13  Al   2.828427   4.898979   2.828427   2.828427   4.000000
    14  Al   4.898979   5.656854   4.898979   5.656854   2.828427
    15  C    5.744563   6.403124   5.744563   6.403124   3.605551
                   11         12         13         14         15
    11  Al   0.000000
    12  Al   4.000000   0.000000
    13  Al   2.828427   2.828427   0.000000
    14  Al   2.828427   2.828427   2.828427   0.000000
    15  C    3.605551   3.605551   3.605551   1.000000   0.000000
 Symmetry turned off by external request.
 Stoichiometry    CAl14
 Framework group  C4V[C4(AlAlC),2SGV(Al2),2SGD(Al4)]
 Deg. of freedom     8
 Full point group                 C4V     NOp   8
 Rotational constants (GHZ):      0.2200679      0.2200679      0.1672370
 Leave Link  202 at Wed Feb 10 14:54:55 2016, MaxMem=   131072000 cpu:         0.0
 (Enter /home/palacios/gaussian/g09/l301.exe)
 General basis read from cards:  (5D, 7F)
 Centers:      15
 sto-3g
 ****
 Centers:       1      2      3      4      5      6      7      8      9     10
 Centers:      11     12     13     14
 S 4 1.0
     Exponent=  9.3510000000D+00 Coefficients= -2.1380000000D-03
     Exponent=  9.5720000000D-01 Coefficients= -2.2640700000D-01
     Exponent=  1.5860000000D-01 Coefficients=  7.5270300000D-01
     Exponent=  5.3810000000D-02 Coefficients=  3.9316600000D-01
 P 4 1.0
     Exponent=  3.9060000000D+00 Coefficients= -8.5700000000D-03
     Exponent=  1.5760000000D+00 Coefficients= -1.5353000000D-02
     Exponent=  1.9770000000D-01 Coefficients=  4.8544000000D-01
     Exponent=  5.7300000000D-02 Coefficients=  6.2200600000D-01
 ****
 ======================================================================================================
                                       Pseudopotential Parameters
 ======================================================================================================
  Center     Atomic      Valence      Angular      Power
  Number     Number     Electrons     Momentum     of R      Exponent        Coefficient   SO-Coeffient
 ======================================================================================================
    1         13            3
                                      D and up 
                                                     2        1.2211000       -0.53798100    0.00000000
                                                     2        3.3681000       -5.45975600    0.00000000
                                                     2        9.7500000      -16.65534300    0.00000000
                                                     1       29.2693000       -6.47521500    0.00000000
                                      S - D
                                                     2        1.5631000      -56.20521300    0.00000000
                                                     2        1.7712000      149.68995500    0.00000000
                                                     2        2.0623000      -91.45439400    0.00000000
                                                     1        3.3583000        3.72894900    0.00000000
                                                     0        2.1300000        3.03799400    0.00000000
                                      P - D
                                                     2        1.8231000       93.67560600    0.00000000
                                                     2        2.1249000     -189.88896800    0.00000000
                                                     2        2.5705000      110.24810400    0.00000000
                                                     1        1.7575000        4.19959600    0.00000000
                                                     0        6.7693000        5.00335600    0.00000000
    2         13            3
                                      D and up 
                                                     2        1.2211000       -0.53798100    0.00000000
                                                     2        3.3681000       -5.45975600    0.00000000
                                                     2        9.7500000      -16.65534300    0.00000000
                                                     1       29.2693000       -6.47521500    0.00000000
                                      S - D
                                                     2        1.5631000      -56.20521300    0.00000000
                                                     2        1.7712000      149.68995500    0.00000000
                                                     2        2.0623000      -91.45439400    0.00000000
                                                     1        3.3583000        3.72894900    0.00000000
                                                     0        2.1300000        3.03799400    0.00000000
                                      P - D
                                                     2        1.8231000       93.67560600    0.00000000
                                                     2        2.1249000     -189.88896800    0.00000000
                                                     2        2.5705000      110.24810400    0.00000000
                                                     1        1.7575000        4.19959600    0.00000000
                                                     0        6.7693000        5.00335600    0.00000000
    3         13            3
                                      D and up 
                                                     2        1.2211000       -0.53798100    0.00000000
                                                     2        3.3681000       -5.45975600    0.00000000
                                                     2        9.7500000      -16.65534300    0.00000000
                                                     1       29.2693000       -6.47521500    0.00000000
                                      S - D
                                                     2        1.5631000      -56.20521300    0.00000000
                                                     2        1.7712000      149.68995500    0.00000000
                                                     2        2.0623000      -91.45439400    0.00000000
                                                     1        3.3583000        3.72894900    0.00000000
                                                     0        2.1300000        3.03799400    0.00000000
                                      P - D
                                                     2        1.8231000       93.67560600    0.00000000
                                                     2        2.1249000     -189.88896800    0.00000000
                                                     2        2.5705000      110.24810400    0.00000000
                                                     1        1.7575000        4.19959600    0.00000000
                                                     0        6.7693000        5.00335600    0.00000000
    4         13            3
                                      D and up 
                                                     2        1.2211000       -0.53798100    0.00000000
                                                     2        3.3681000       -5.45975600    0.00000000
                                                     2        9.7500000      -16.65534300    0.00000000
                                                     1       29.2693000       -6.47521500    0.00000000
                                      S - D
                                                     2        1.5631000      -56.20521300    0.00000000
                                                     2        1.7712000      149.68995500    0.00000000
                                                     2        2.0623000      -91.45439400    0.00000000
                                                     1        3.3583000        3.72894900    0.00000000
                                                     0        2.1300000        3.03799400    0.00000000
                                      P - D
                                                     2        1.8231000       93.67560600    0.00000000
                                                     2        2.1249000     -189.88896800    0.00000000
                                                     2        2.5705000      110.24810400    0.00000000
                                                     1        1.7575000        4.19959600    0.00000000
                                                     0        6.7693000        5.00335600    0.00000000
    5         13            3
                                      D and up 
                                                     2        1.2211000       -0.53798100    0.00000000
                                                     2        3.3681000       -5.45975600    0.00000000
                                                     2        9.7500000      -16.65534300    0.00000000
                                                     1       29.2693000       -6.47521500    0.00000000
                                      S - D
                                                     2        1.5631000      -56.20521300    0.00000000
                                                     2        1.7712000      149.68995500    0.00000000
                                                     2        2.0623000      -91.45439400    0.00000000
                                                     1        3.3583000        3.72894900    0.00000000
                                                     0        2.1300000        3.03799400    0.00000000
                                      P - D
                                                     2        1.8231000       93.67560600    0.00000000
                                                     2        2.1249000     -189.88896800    0.00000000
                                                     2        2.5705000      110.24810400    0.00000000
                                                     1        1.7575000        4.19959600    0.00000000
                                                     0        6.7693000        5.00335600    0.00000000
    6         13            3
                                      D and up 
                                                     2        1.2211000       -0.53798100    0.00000000
                                                     2        3.3681000       -5.45975600    0.00000000
                                                     2        9.7500000      -16.65534300    0.00000000
                                                     1       29.2693000       -6.47521500    0.00000000
                                      S - D
                                                     2        1.5631000      -56.20521300    0.00000000
                                                     2        1.7712000      149.68995500    0.00000000
                                                     2        2.0623000      -91.45439400    0.00000000
                                                     1        3.3583000        3.72894900    0.00000000
                                                     0        2.1300000        3.03799400    0.00000000
                                      P - D
                                                     2        1.8231000       93.67560600    0.00000000
                                                     2        2.1249000     -189.88896800    0.00000000
                                                     2        2.5705000      110.24810400    0.00000000
                                                     1        1.7575000        4.19959600    0.00000000
                                                     0        6.7693000        5.00335600    0.00000000
    7         13            3
                                      D and up 
                                                     2        1.2211000       -0.53798100    0.00000000
                                                     2        3.3681000       -5.45975600    0.00000000
                                                     2        9.7500000      -16.65534300    0.00000000
                                                     1       29.2693000       -6.47521500    0.00000000
                                      S - D
                                                     2        1.5631000      -56.20521300    0.00000000
                                                     2        1.7712000      149.68995500    0.00000000
                                                     2        2.0623000      -91.45439400    0.00000000
                                                     1        3.3583000        3.72894900    0.00000000
                                                     0        2.1300000        3.03799400    0.00000000
                                      P - D
                                                     2        1.8231000       93.67560600    0.00000000
                                                     2        2.1249000     -189.88896800    0.00000000
                                                     2        2.5705000      110.24810400    0.00000000
                                                     1        1.7575000        4.19959600    0.00000000
                                                     0        6.7693000        5.00335600    0.00000000
    8         13            3
                                      D and up 
                                                     2        1.2211000       -0.53798100    0.00000000
                                                     2        3.3681000       -5.45975600    0.00000000
                                                     2        9.7500000      -16.65534300    0.00000000
                                                     1       29.2693000       -6.47521500    0.00000000
                                      S - D
                                                     2        1.5631000      -56.20521300    0.00000000
                                                     2        1.7712000      149.68995500    0.00000000
                                                     2        2.0623000      -91.45439400    0.00000000
                                                     1        3.3583000        3.72894900    0.00000000
                                                     0        2.1300000        3.03799400    0.00000000
                                      P - D
                                                     2        1.8231000       93.67560600    0.00000000
                                                     2        2.1249000     -189.88896800    0.00000000
                                                     2        2.5705000      110.24810400    0.00000000
                                                     1        1.7575000        4.19959600    0.00000000
                                                     0        6.7693000        5.00335600    0.00000000
    9         13            3
                                      D and up 
                                                     2        1.2211000       -0.53798100    0.00000000
                                                     2        3.3681000       -5.45975600    0.00000000
                                                     2        9.7500000      -16.65534300    0.00000000
                                                     1       29.2693000       -6.47521500    0.00000000
                                      S - D
                                                     2        1.5631000      -56.20521300    0.00000000
                                                     2        1.7712000      149.68995500    0.00000000
                                                     2        2.0623000      -91.45439400    0.00000000
                                                     1        3.3583000        3.72894900    0.00000000
                                                     0        2.1300000        3.03799400    0.00000000
                                      P - D
                                                     2        1.8231000       93.67560600    0.00000000
                                                     2        2.1249000     -189.88896800    0.00000000
                                                     2        2.5705000      110.24810400    0.00000000
                                                     1        1.7575000        4.19959600    0.00000000
                                                     0        6.7693000        5.00335600    0.00000000
   10         13            3
                                      D and up 
                                                     2        1.2211000       -0.53798100    0.00000000
                                                     2        3.3681000       -5.45975600    0.00000000
                                                     2        9.7500000      -16.65534300    0.00000000
                                                     1       29.2693000       -6.47521500    0.00000000
                                      S - D
                                                     2        1.5631000      -56.20521300    0.00000000
                                                     2        1.7712000      149.68995500    0.00000000
                                                     2        2.0623000      -91.45439400    0.00000000
                                                     1        3.3583000        3.72894900    0.00000000
                                                     0        2.1300000        3.03799400    0.00000000
                                      P - D
                                                     2        1.8231000       93.67560600    0.00000000
                                                     2        2.1249000     -189.88896800    0.00000000
                                                     2        2.5705000      110.24810400    0.00000000
                                                     1        1.7575000        4.19959600    0.00000000
                                                     0        6.7693000        5.00335600    0.00000000
   11         13            3
                                      D and up 
                                                     2        1.2211000       -0.53798100    0.00000000
                                                     2        3.3681000       -5.45975600    0.00000000
                                                     2        9.7500000      -16.65534300    0.00000000
                                                     1       29.2693000       -6.47521500    0.00000000
                                      S - D
                                                     2        1.5631000      -56.20521300    0.00000000
                                                     2        1.7712000      149.68995500    0.00000000
                                                     2        2.0623000      -91.45439400    0.00000000
                                                     1        3.3583000        3.72894900    0.00000000
                                                     0        2.1300000        3.03799400    0.00000000
                                      P - D
                                                     2        1.8231000       93.67560600    0.00000000
                                                     2        2.1249000     -189.88896800    0.00000000
                                                     2        2.5705000      110.24810400    0.00000000
                                                     1        1.7575000        4.19959600    0.00000000
                                                     0        6.7693000        5.00335600    0.00000000
   12         13            3
                                      D and up 
                                                     2        1.2211000       -0.53798100    0.00000000
                                                     2        3.3681000       -5.45975600    0.00000000
                                                     2        9.7500000      -16.65534300    0.00000000
                                                     1       29.2693000       -6.47521500    0.00000000
                                      S - D
                                                     2        1.5631000      -56.20521300    0.00000000
                                                     2        1.7712000      149.68995500    0.00000000
                                                     2        2.0623000      -91.45439400    0.00000000
                                                     1        3.3583000        3.72894900    0.00000000
                                                     0        2.1300000        3.03799400    0.00000000
                                      P - D
                                                     2        1.8231000       93.67560600    0.00000000
                                                     2        2.1249000     -189.88896800    0.00000000
                                                     2        2.5705000      110.24810400    0.00000000
                                                     1        1.7575000        4.19959600    0.00000000
                                                     0        6.7693000        5.00335600    0.00000000
   13         13            3
                                      D and up 
                                                     2        1.2211000       -0.53798100    0.00000000
                                                     2        3.3681000       -5.45975600    0.00000000
                                                     2        9.7500000      -16.65534300    0.00000000
                                                     1       29.2693000       -6.47521500    0.00000000
                                      S - D
                                                     2        1.5631000      -56.20521300    0.00000000
                                                     2        1.7712000      149.68995500    0.00000000
                                                     2        2.0623000      -91.45439400    0.00000000
                                                     1        3.3583000        3.72894900    0.00000000
                                                     0        2.1300000        3.03799400    0.00000000
                                      P - D
                                                     2        1.8231000       93.67560600    0.00000000
                                                     2        2.1249000     -189.88896800    0.00000000
                                                     2        2.5705000      110.24810400    0.00000000
                                                     1        1.7575000        4.19959600    0.00000000
                                                     0        6.7693000        5.00335600    0.00000000
   14         13            3
                                      D and up 
                                                     2        1.2211000       -0.53798100    0.00000000
                                                     2        3.3681000       -5.45975600    0.00000000
                                                     2        9.7500000      -16.65534300    0.00000000
                                                     1       29.2693000       -6.47521500    0.00000000
                                      S - D
                                                     2        1.5631000      -56.20521300    0.00000000
                                                     2        1.7712000      149.68995500    0.00000000
                                                     2        2.0623000      -91.45439400    0.00000000
                                                     1        3.3583000        3.72894900    0.00000000
                                                     0        2.1300000        3.03799400    0.00000000
                                      P - D
                                                     2        1.8231000       93.67560600    0.00000000
                                                     2        2.1249000     -189.88896800    0.00000000
                                                     2        2.5705000      110.24810400    0.00000000
                                                     1        1.7575000        4.19959600    0.00000000
                                                     0        6.7693000        5.00335600    0.00000000
   15          6
                                   No pseudopotential on this center.
 ======================================================================================================
 Ernie: Thresh=  0.10000D-02 Tol=  0.10000D-05 Strict=F.
    61 basis functions,   239 primitive gaussians,    61 cartesian basis functions
    24 alpha electrons       24 beta electrons
       nuclear repulsion energy       146.3847861182 Hartrees.
 IExCor=  402 DFT=T Ex=B Corr=LYP ExCW=0 ScaHFX=  0.000000
 ScaDFX=  1.000000  1.000000  1.000000  1.000000 ScalE2=  1.000000  1.000000
 IRadAn=      0 IRanWt=     -1 IRanGd=            0 ICorTp=0 IEmpDi=  4
 NAtoms=   15 NActive=   15 NUniq=   15 SFac= 1.00D+00 NAtFMM=   60 NAOKFM=F Big=F
 Integral buffers will be    131072 words long.
 Raffenetti 2 integral format.
 Two-electron integral symmetry is turned off.
 Leave Link  301 at Wed Feb 10 14:54:55 2016, MaxMem=   131072000 cpu:         0.2
 (Enter /home/palacios/gaussian/g09/l302.exe)
 NPDir=0 NMtPBC=     1 NCelOv=     1 NCel=       1 NClECP=     1 NCelD=      1
         NCelK=      1 NCelE2=     1 NClLst=     1 CellRange=     0.0.
 One-electron integrals computed using PRISM.
   1 Symmetry operations used in ECPInt.
 ECPInt:  NShTT=     465 NPrTT=    7195 LenC2=     466 LenP2D=    6043.
 LDataN:  DoStor=T MaxTD1= 3 Len=   28
 NBasis=    61 RedAO= T EigKep=  1.11D-01  NBF=    61
 NBsUse=    61 1.00D-06 EigRej= -1.00D+00 NBFU=    61
 Precomputing XC quadrature grid using
 IXCGrd= 4 IRadAn=           0 IRanWt=          -1 IRanGd=           0 AccXCQ= 0.00D+00.
 Generated NRdTot=       0 NPtTot=           0 NUsed=           0 NTot=          32
 NSgBfM=    61    61    61    61    61 MxSgAt=    15 MxSgA2=    15.
 Leave Link  302 at Wed Feb 10 14:54:56 2016, MaxMem=   131072000 cpu:         5.6
 (Enter /home/palacios/gaussian/g09/l303.exe)
 DipDrv:  MaxL=1.
 Leave Link  303 at Wed Feb 10 14:54:56 2016, MaxMem=   131072000 cpu:         0.1
 (Enter /home/palacios/gaussian/g09/l401.exe)
 ExpMin= 5.38D-02 ExpMax= 7.16D+01 ExpMxC= 7.16D+01 IAcc=2 IRadAn=         4 AccDes= 0.00D+00
 Harris functional with IExCor=  402 and IRadAn=       4 diagonalized for initial guess.
 HarFok:  IExCor=  402 AccDes= 0.00D+00 IRadAn=         4 IDoV= 1 UseB2=F ITyADJ=14
 ICtDFT=  3500011 ScaDFX=  1.000000  1.000000  1.000000  1.000000
 FoFCou: FMM=F IPFlag=           0 FMFlag=      100000 FMFlg1=           0
         NFxFlg=           0 DoJE=T BraDBF=F KetDBF=T FulRan=T
         wScrn=  0.000000 ICntrl=     500 IOpCl=  0 I1Cent=   200000004 NGrid=           0
         NMat0=    1 NMatS0=      1 NMatT0=    0 NMatD0=    1 NMtDS0=    0 NMtDT0=    0
 Symmetry not used in FoFCou.
 Harris En= -63.8620886645405    
 JPrj=0 DoOrth=F DoCkMO=F.
 Initial guess <Sx>= 0.0000 <Sy>= 0.0000 <Sz>= 0.0000 <S**2>= 0.0000 S= 0.0000
 Leave Link  401 at Wed Feb 10 14:54:57 2016, MaxMem=   131072000 cpu:         1.6
 (Enter ../bin/l502.exe)
 UHF open shell SCF:
 Using DIIS extrapolation, IDIIS=  1040.
 Two-electron integral symmetry not used.
 Keep J ints in memory in canonical form, NReq=2708531.
 IVT=       30475 IEndB=       30475 NGot=   131072000 MDV=   129252640
 LenX=   129252640 LenY=   129248478
 Requested convergence on RMS density matrix=1.00D-06 within 128 cycles.
 Requested convergence on MAX density matrix=1.00D-04.
 Requested convergence on             energy=1.00D-04.
 No special actions if energy rises.
 FoFCou: FMM=F IPFlag=           0 FMFlag=           0 FMFlg1=           0
         NFxFlg=           0 DoJE=F BraDBF=F KetDBF=F FulRan=T
         wScrn=  0.000000 ICntrl=     600 IOpCl=  0 I1Cent=           0 NGrid=           0
         NMat0=    1 NMatS0=   1891 NMatT0=    0 NMatD0=    1 NMtDS0=    0 NMtDT0=    0
 Symmetry not used in FoFCou.
 Integral accuracy reduced to 1.0D-05 until final iterations.

 Cycle   1  Pass 0  IDiag  1:
 
  ****************************************************************** 
  ***                                                            *** 
  ***                      A l i c a n t e                       *** 
  ***                      N a n o                               *** 
  ***                      T r a n s p o r t                     *** 
  ***                      G 0 9                                 *** 
  ***                                                            *** 
  ****************************************************************** 
  ***                     Version: 2.3.4                         *** 
  ****************************************************************** 
  *  Copyright (c) by                                              * 
  *                                                                * 
  *  Juan Jose Palacios (1)                                        * 
  *  David Jacob (2)                                               * 
  *  Maria Soriano (1,5)                                           * 
  *  Angel J. Perez-Jimenez (3)                                    * 
  *  Emilio SanFabian (3)                                          * 
  *  Jose Antonio Antonio Verges (4)                               * 
  *  Enrique Louis (5)                                             * 
  *                                                                * 
  * (1) Departamento de Fisica de la Materia Condensada            * 
  *     Universidad Autonoma de Madrid                             * 
  *     28049 Madrid (SPAIN)                                       * 
  * (2) Theory Department                                          * 
  *     Max-Planck-Institute for Microstructure Physics            * 
  *     Halle, 06120 (GERMANY)                                     * 
  * (3) Departamento de Quimica Fisica                             * 
  *     Universidad de Alicante                                    * 
  *     03690 Alicante (SPAIN)                                     * 
  * (4) Insto. de Ciencias de Materiales de Madrid (ICMM)          * 
  *     Consejo Superior de Investigacion y Ciencia (CSIC)         * 
  *     28049 Madrid (SPAIN)                                       * 
  * (5) Departamento de Fisica Aplicada                            * 
  *     Universidad de Alicante                                    * 
  *     03690 Alicante (SPAIN)                                     * 
  *                                                                * 
  ****************************************************************** 
 
  ****************************************************************** 
  *                                                                * 
  *              Initializing ANT.G09 modules                      * 
  *                                                                * 
  ****************************************************************** 
 
 Scanning Al9-Al4-C.ant file for parameter specifications...
 Done.
 ****************************
 Basic calculation parameters
 ****************************
 ALPHA      =    2.0000000000000000E-002
 NPULAY     =                         4
 CHARGEACC  =    9.9999999999999995E-008  %
 FERMIACC   =    9.9999999999999995E-008  %
 PACC       =    1.0000000000000001E-009  %
 FULLACC    =   F
 MAX        =                        30
 SELFACC    =    9.9999999999999995E-007
 SMALL      =    0.1000000000000000     
 SMALLD     =    0.1000000000000000       A
 BIASVOLT   =     0.000000000000000       V
 QEXCESS    =     0.000000000000000      electrons
 ETA        =    1.0000000000000000E-010
 GLUE       =     1.000000000000000     
 FERMISTART =    -5.000000000000000       eV
 SOC        =     0.000000000000000       eV
 SL         =    1.0000000000000000E-002
 DMIMAG     =   F
 FMIXING    =   F
 ************************
 Bethe lattice parameters
 ************************
 TYPE1      = BETHE     
 TYPE2      = GHOST     
 BLPAR1     = Papacon             
 BLPAR2     = Papacon             
 NEMBED1    = ? 
 NEMBED2    = ? 
 NATOMEL1   = ? 
 NATOMEL2   = ? 
 OVERLAP    =     0.000000000000000     
 *************************
 Spin transport parameters
 *************************
 SWOFFSPL   =    1.0000000000000000E-003
 NSPINLOCK  =                         0
 NALPHA     =                        -1
 NBETA      =                        -1
 DU         =   F
 UD         =   F
 DD         =   F
 MRSTART    =                         0
 SPINDEL    =   F
 SPINEDIT   =                         0
 ***********************
 Correlations parameters
 ***********************
 CORRBLOCKS =                         0
 PORTHO     =   F
 HYBFUNC    =   F
 DFT+U      =   F
 DIAGCORRBL =   F
 *****************
 Output parameters
 *****************
 HAMILTON   =   F
 MULLIKEN   =   F
 HTRANSM    =   F
 ESTEP      =    1.0000000000000000E-002
 DOSENERGY  =     0.000000000000000     
 EW1        =    -3.000000000000000     
 EW2        =     3.000000000000000     
 LDOS_BEG   =                        14
 LDOS_END   =                        14
 RTM_BEG    =                         1
 RTM_END    =                         0
 NCHANNELS  =                         0
 LEADDOS    =   F
 ANT1D      =   F
 -------------------
 Initializing device
 -------------------
 ----------------------------------------------------------
 Analyzing cluster for the connection of the  Bethe Lattice
 ----------------------------------------------------------
 
 Atom type of lead 1: Al
 
    1   13   3.    4    1    4
    2   13   3.    4    5    8
    3   13   3.    4    9   12
    4   13   3.    4   13   16
    5   13   3.    4   17   20
    6   13   3.    4   21   24
    7   13   3.    4   25   28
    8   13   3.    4   29   32
    9   13   3.    4   33   36
   10   13   3.    4   37   40
   11   13   3.    4   41   44
   12   13   3.    4   45   48
   13   13   3.    4   49   52
   14   13   3.    4   53   56
   15    6   6.    5   57   61
 
  Center of charge:
   0.000000   0.000000  -9.468734
 
  Atoms in substrate:                       14
   1  Al  -7.558905   0.000000 -11.338357
   2  Al   0.000000   7.558905 -11.338357
   3  Al   0.000000   0.000000 -11.338357
   4  Al  -3.779452   3.779452 -11.338357
   5  Al  -3.779452  -3.779452 -11.338357
   6  Al   3.779452   3.779452 -11.338357
   7  Al   0.000000  -7.558905 -11.338357
   8  Al   3.779452  -3.779452 -11.338357
   9  Al   7.558905   0.000000 -11.338357
  10  Al  -3.779452   0.000000  -7.558905
  11  Al   0.000000   3.779452  -7.558905
  12  Al   0.000000  -3.779452  -7.558905
  13  Al   3.779452   0.000000  -7.558905
  14  Al   0.000000   0.000000  -3.779452
 
  Atoms in molecule:                        1
  15  C    0.000000   0.000000  -1.889726
 
 Plane 1
 with normal vector (  0.000000,  0.000000, -1.000000 )
 has    9 atoms:
    1    1  -7.558905   0.000000 -11.338357
    2    1   0.000000   7.558905 -11.338357
    3    1   0.000000   0.000000 -11.338357
    4    1  -3.779452   3.779452 -11.338357
    5    1  -3.779452  -3.779452 -11.338357
    6    1   3.779452   3.779452 -11.338357
    7    1   0.000000  -7.558905 -11.338357
    8    1   3.779452  -3.779452 -11.338357
    9    1   7.558905   0.000000 -11.338357
 
 WARNING!!: There is a missing plane. The transmission cannot be calculated !!!
 Finding lattice directions in electrode 1 ....
 Near-neighbor distance at electrode 1 =     2.828442044700474     
Found         12  lattice directions
   0.70711   0.70711   0.00000
  -0.70711  -0.70711   0.00000
   0.70711  -0.70711   0.00000
  -0.70711   0.70711   0.00000
   0.70711   0.00000   0.70711
  -0.70711   0.00000  -0.70711
   0.00000  -0.70711   0.70711
   0.00000   0.70711  -0.70711
  -0.70711   0.00000   0.70711
   0.70711   0.00000  -0.70711
   0.00000   0.70711   0.70711
   0.00000  -0.70711  -0.70711
 
 -----------------------------------------------------
 Inititalizing Bethe lattice for electrode No. 1
 -----------------------------------------------------
 
 Open file 
 /home/palacios/ANT.G/pgi/BLDAT/BL013.dat                                                            
  to read Bethe lattice parameters.
 Reading Papacon                                            parameters.
 es        =   8.8428850274405876E-002
 ep        =   0.4741417766403869     
 edd       =    1.160603369851165     
 edt       =    1.096726807993163     
 sss       =  -6.8433169286640935E-002
 sps       =  -0.1023488286925596     
 pps       =   9.4941116437838882E-002
 ppp       =  -4.8761327480330158E-002
 sds       =  -4.5901346836469424E-002
 pds       =   2.1585958752781017E-002
 pdp       =  -5.7462780697749460E-002
 dds       =   5.4253334585371432E-002
 ddp       =   7.4738712970810348E-002
 ddd       =   4.0035279118644844E-002
 S_sss     =   8.4646477362927991E-002
 S_sps     =   0.1272649251401382     
 S_pps     =  -0.1903619564725789     
 S_ppp     =   6.0983309741209232E-002
 S_sds     =   0.1385968864595994     
 S_pds     =  -0.1545687609239824     
 S_pdp     =   7.1842480269995401E-002
 S_dds     =   0.1587624706222596     
 S_ddp     =  -9.5260105979644558E-002
 S_ddd     =   6.0332384073878240E-002
 Done.
 Setting Fermi level to zero for Lead                         1
 Searching boundaries [EMin, EMax]
 such that Int[EMin, EMax] DOS(E) =                        8 
  ( Number of spin orbitals ).
  E=   -10.00000000000000          TotCharge=   2.5298935151241153E-006
 EMin=   -10.00000000000000        Charge=   2.5298935151241153E-006
  E=    10.00000000000000          TotCharge=    6.292100251187597     
  E=    20.00000000000000          TotCharge=    7.999997004150163     
 EMax=    20.00000000000000        Charge=    7.999997004150163     
 Now searching for Fermi energy...
  E=    15.00000000000000          TotCharge=    7.999998929019612     
  E=   -5.000000000000000          TotCharge=   0.2763082953327896     
  E=    5.000000000000000          TotCharge=    3.581330888754869     
  E=    0.000000000000000          TotCharge=    1.566065004788497     
  E=    2.500000000000000          TotCharge=    2.355727794427526     
  E=    3.750000000000000          TotCharge=    2.947472231202907     
  E=    4.375000000000000          TotCharge=    3.261467311840264     
  E=    4.062500000000000          TotCharge=    3.103561999188514     
  E=    3.906250000000000          TotCharge=    3.025260885397882     
  E=    3.828125000000000          TotCharge=    2.986298266797509     
 Secant method:
  E=    3.728125000000000          TotCharge=    2.936626677614302     
  E=    3.928125000000000          TotCharge=    3.036193699379745     
  E=    3.855422816610385          TotCharge=    2.999897208442039     
 Bethe lattice Fermi energy =     3.855422816610385     
 ---------------------------------------------------
  Details on device and contacting atoms -----------
 ---------------------------------------------------
 NEmbed(1) =                        9
 NEmbed(2) =                        0
 Number of electrons in neutral reduced device
 NCDEl =                        48
 First and last orbital in reduced device
 NCDAO1 =                         1
 NCDAO2 =                        61
 ---------------------------------------------------
 E= -63.1627101314064    
 DIIS: error= 1.07D-01 at cycle   1 NSaved=   1.
 NSaved= 1 IEnMin= 1 EnMin= -63.1627101314064     IErMin= 1 ErrMin= 1.07D-01
 ErrMax= 1.07D-01  0.00D+00 EMaxC= 1.00D-01 BMatC= 1.09D+00 BMatP= 1.09D+00
 IDIUse=3 WtCom= 0.00D+00 WtEn= 1.00D+00
 Coeff-Com:  0.100D+01
 Coeff-En:   0.100D+01
 Coeff:      0.100D+01
 Gap=    -0.012 Goal=   None    Shift=    0.000
 Gap=    -0.012 Goal=   None    Shift=    0.000
 RMSDP=5.30D-02 MaxDP=8.88D-01              OVMax= 9.26D-01

 Cycle   2  Pass 0  IDiag  1:
 E= -53.9898689619088     Delta-E=        9.172841169498 Rises=F Damp=F
 DIIS: error= 1.20D-01 at cycle   2 NSaved=   2.
 NSaved= 2 IEnMin= 1 EnMin= -63.1627101314064     IErMin= 1 ErrMin= 1.07D-01
 ErrMax= 1.20D-01  0.00D+00 EMaxC= 1.00D-01 BMatC= 5.40D+00 BMatP= 1.09D+00
 IDIUse=2 WtCom= 0.00D+00 WtEn= 1.00D+00
 Coeff-En:   0.873D+00 0.127D+00
 Coeff:      0.873D+00 0.127D+00
 Gap=     0.004 Goal=   None    Shift=    0.000
 Gap=     0.004 Goal=   None    Shift=    0.000
 RMSDP=4.16D-02 MaxDP=6.89D-01 DE= 9.17D+00 OVMax= 5.95D-01

 Problem detected with inexpensive integrals.
 Switching to full accuracy and repeating last cycle.
 Cycle   3  Pass 1  IDiag  1:
 E= -53.9888807858442     Delta-E=        0.000988176065 Rises=F Damp=F
 DIIS: error= 1.20D-01 at cycle   1 NSaved=   1.
 NSaved= 1 IEnMin= 1 EnMin= -53.9888807858442     IErMin= 1 ErrMin= 1.20D-01
 ErrMax= 1.20D-01  0.00D+00 EMaxC= 1.00D-01 BMatC= 5.40D+00 BMatP= 5.40D+00
 IDIUse=3 WtCom= 0.00D+00 WtEn= 1.00D+00
 Coeff-Com:  0.100D+01
 Coeff-En:   0.100D+01
 Coeff:      0.100D+01
 Gap=    -0.092 Goal=   None    Shift=    0.000
 Gap=    -0.092 Goal=   None    Shift=    0.000
 RMSDP=2.24D-01 MaxDP=3.60D+00 DE= 9.88D-04 OVMax= 6.46D-01

 Cycle   4  Pass 1  IDiag  1:
 E= -25.2681403840427     Delta-E=       28.720740401801 Rises=F Damp=F
 DIIS: error= 4.34D-01 at cycle   2 NSaved=   2.
 NSaved= 2 IEnMin= 1 EnMin= -53.9888807858442     IErMin= 1 ErrMin= 1.20D-01
 ErrMax= 4.34D-01  0.00D+00 EMaxC= 1.00D-01 BMatC= 2.39D+01 BMatP= 5.40D+00
 IDIUse=2 WtCom= 0.00D+00 WtEn= 1.00D+00
 Coeff-En:   0.718D+00 0.282D+00
 Coeff:      0.718D+00 0.282D+00
 Gap=     0.058 Goal=   None    Shift=    0.000
 Gap=     0.058 Goal=   None    Shift=    0.000
 RMSDP=2.03D-01 MaxDP=2.99D+00 DE= 2.87D+01 OVMax= 8.84D-01

 Cycle   5  Pass 1  IDiag  1:
 E= -57.9173526494858     Delta-E=      -32.649212265443 Rises=F Damp=F
 DIIS: error= 1.76D-01 at cycle   3 NSaved=   3.
 NSaved= 3 IEnMin= 3 EnMin= -57.9173526494858     IErMin= 1 ErrMin= 1.20D-01
 ErrMax= 1.76D-01  0.00D+00 EMaxC= 1.00D-01 BMatC= 7.65D+00 BMatP= 5.40D+00
 IDIUse=2 WtCom= 0.00D+00 WtEn= 1.00D+00
 EnCoef did     3 forward-backward iterations
 Coeff-En:   0.418D+00 0.203D-01 0.562D+00
 Coeff:      0.418D+00 0.203D-01 0.562D+00
 Gap=     0.137 Goal=   None    Shift=    0.000
 Gap=     0.137 Goal=   None    Shift=    0.000
 RMSDP=1.26D-01 MaxDP=1.38D+00 DE=-3.26D+01 OVMax= 6.93D-01

 Cycle   6  Pass 1  IDiag  1:
 E= -55.0596617054242     Delta-E=        2.857690944062 Rises=F Damp=F
 DIIS: error= 2.08D-01 at cycle   4 NSaved=   4.
 NSaved= 4 IEnMin= 3 EnMin= -57.9173526494858     IErMin= 1 ErrMin= 1.20D-01
 ErrMax= 2.08D-01  0.00D+00 EMaxC= 1.00D-01 BMatC= 1.26D+01 BMatP= 5.40D+00
 IDIUse=2 WtCom= 0.00D+00 WtEn= 1.00D+00
 EnCoef did     2 forward-backward iterations
 Coeff-En:   0.344D+00 0.000D+00 0.429D+00 0.226D+00
 Coeff:      0.344D+00 0.000D+00 0.429D+00 0.226D+00
 Gap=    -0.044 Goal=   None    Shift=    0.000
 Gap=    -0.044 Goal=   None    Shift=    0.000
 RMSDP=9.44D-02 MaxDP=1.17D+00 DE= 2.86D+00 OVMax= 6.91D-01

 Cycle   7  Pass 1  IDiag  1:
 E= -63.6338906066847     Delta-E=       -8.574228901261 Rises=F Damp=F
 DIIS: error= 1.97D-02 at cycle   5 NSaved=   5.
 NSaved= 5 IEnMin= 5 EnMin= -63.6338906066847     IErMin= 5 ErrMin= 1.97D-02
 ErrMax= 1.97D-02  0.00D+00 EMaxC= 1.00D-01 BMatC= 9.69D-02 BMatP= 5.40D+00
 IDIUse=3 WtCom= 8.03D-01 WtEn= 1.97D-01
 Coeff-Com:  0.109D-01 0.631D-02 0.304D-01-0.261D-01 0.978D+00
 Coeff-En:   0.000D+00 0.000D+00 0.000D+00 0.000D+00 0.100D+01
 Coeff:      0.877D-02 0.507D-02 0.244D-01-0.209D-01 0.983D+00
 Gap=    -0.058 Goal=   None    Shift=    0.000
 Gap=    -0.058 Goal=   None    Shift=    0.000
 RMSDP=4.30D-02 MaxDP=4.92D-01 DE=-8.57D+00 OVMax= 6.41D-01

 Cycle   8  Pass 1  IDiag  1:
 E= -62.4887934287227     Delta-E=        1.145097177962 Rises=F Damp=F
 DIIS: error= 7.80D-02 at cycle   6 NSaved=   6.
 NSaved= 6 IEnMin= 5 EnMin= -63.6338906066847     IErMin= 5 ErrMin= 1.97D-02
 ErrMax= 7.80D-02  0.00D+00 EMaxC= 1.00D-01 BMatC= 1.86D+00 BMatP= 9.69D-02
 IDIUse=2 WtCom= 0.00D+00 WtEn= 1.00D+00
 Coeff-En:   0.000D+00 0.000D+00 0.000D+00 0.000D+00 0.850D+00 0.150D+00
 Coeff:      0.000D+00 0.000D+00 0.000D+00 0.000D+00 0.850D+00 0.150D+00
 Gap=     0.007 Goal=   None    Shift=    0.000
 Gap=     0.007 Goal=   None    Shift=    0.000
 RMSDP=2.62D-02 MaxDP=3.30D-01 DE= 1.15D+00 OVMax= 6.73D-01

 Cycle   9  Pass 1  IDiag  1:
 E= -63.4993689146999     Delta-E=       -1.010575485977 Rises=F Damp=F
 DIIS: error= 2.94D-02 at cycle   7 NSaved=   7.
 NSaved= 7 IEnMin= 5 EnMin= -63.6338906066847     IErMin= 5 ErrMin= 1.97D-02
 ErrMax= 2.94D-02  0.00D+00 EMaxC= 1.00D-01 BMatC= 2.51D-01 BMatP= 9.69D-02
 IDIUse=2 WtCom= 0.00D+00 WtEn= 1.00D+00
 Coeff-En:   0.000D+00 0.000D+00 0.000D+00 0.000D+00 0.636D+00 0.000D+00
 Coeff-En:   0.364D+00
 Coeff:      0.000D+00 0.000D+00 0.000D+00 0.000D+00 0.636D+00 0.000D+00
 Coeff:      0.364D+00
 Gap=    -0.002 Goal=   None    Shift=    0.000
 Gap=    -0.002 Goal=   None    Shift=    0.000
 RMSDP=3.40D-02 MaxDP=2.56D-01 DE=-1.01D+00 OVMax= 9.68D-01

 Cycle  10  Pass 1  IDiag  1:
 E= -63.4404490217142     Delta-E=        0.058919892986 Rises=F Damp=F
 DIIS: error= 4.88D-02 at cycle   8 NSaved=   8.
 NSaved= 8 IEnMin= 5 EnMin= -63.6338906066847     IErMin= 5 ErrMin= 1.97D-02
 ErrMax= 4.88D-02  0.00D+00 EMaxC= 1.00D-01 BMatC= 4.84D-01 BMatP= 9.69D-02
 IDIUse=2 WtCom= 0.00D+00 WtEn= 1.00D+00
 EnCoef did     5 forward-backward iterations
 Coeff-En:   0.000D+00 0.000D+00 0.000D+00 0.000D+00 0.530D+00 0.000D+00
 Coeff-En:   0.348D+00 0.121D+00
 Coeff:      0.000D+00 0.000D+00 0.000D+00 0.000D+00 0.530D+00 0.000D+00
 Coeff:      0.348D+00 0.121D+00
 Gap=     0.005 Goal=   None    Shift=    0.000
 Gap=     0.005 Goal=   None    Shift=    0.000
 RMSDP=2.98D-02 MaxDP=2.02D-01 DE= 5.89D-02 OVMax= 9.86D-01

 Cycle  11  Pass 1  IDiag  1:
 E= -63.6888662595899     Delta-E=       -0.248417237876 Rises=F Damp=F
 DIIS: error= 1.01D-02 at cycle   9 NSaved=   9.
 NSaved= 9 IEnMin= 9 EnMin= -63.6888662595899     IErMin= 9 ErrMin= 1.01D-02
 ErrMax= 1.01D-02  0.00D+00 EMaxC= 1.00D-01 BMatC= 3.74D-02 BMatP= 9.69D-02
 IDIUse=3 WtCom= 8.99D-01 WtEn= 1.01D-01
 EnCoef did   100 forward-backward iterations
 Coeff-Com: -0.448D-02 0.494D-03 0.199D-02-0.425D-02 0.361D+00-0.410D-01
 Coeff-Com:  0.183D+00 0.120D+00 0.384D+00
 Coeff-En:   0.000D+00 0.000D+00 0.000D+00 0.000D+00 0.360D+00 0.000D+00
 Coeff-En:   0.182D-02 0.105D-01 0.627D+00
 Coeff:     -0.403D-02 0.444D-03 0.179D-02-0.382D-02 0.361D+00-0.369D-01
 Coeff:      0.165D+00 0.109D+00 0.408D+00
 Gap=    -0.006 Goal=   None    Shift=    0.000
 Gap=    -0.006 Goal=   None    Shift=    0.000
 RMSDP=2.70D-02 MaxDP=1.79D-01 DE=-2.48D-01 OVMax= 9.99D-01

 Cycle  12  Pass 1  IDiag  1:
 E= -63.6604596948737     Delta-E=        0.028406564716 Rises=F Damp=F
 DIIS: error= 1.43D-02 at cycle  10 NSaved=  10.
 NSaved=10 IEnMin= 9 EnMin= -63.6888662595899     IErMin= 9 ErrMin= 1.01D-02
 ErrMax= 1.43D-02  0.00D+00 EMaxC= 1.00D-01 BMatC= 6.26D-02 BMatP= 3.74D-02
 IDIUse=2 WtCom= 0.00D+00 WtEn= 1.00D+00
 EnCoef did     9 forward-backward iterations
 Coeff-En:   0.000D+00 0.000D+00 0.000D+00 0.000D+00 0.655D-01 0.000D+00
 Coeff-En:   0.000D+00 0.000D+00 0.566D+00 0.369D+00
 Coeff:      0.000D+00 0.000D+00 0.000D+00 0.000D+00 0.655D-01 0.000D+00
 Coeff:      0.000D+00 0.000D+00 0.566D+00 0.369D+00
 Gap=     0.004 Goal=   None    Shift=    0.000
 Gap=     0.004 Goal=   None    Shift=    0.000
 RMSDP=2.78D-02 MaxDP=2.15D-01 DE= 2.84D-02 OVMax= 9.96D-01

 Cycle  13  Pass 1  IDiag  1:
 E= -63.6641768008367     Delta-E=       -0.003717105963 Rises=F Damp=F
 DIIS: error= 1.44D-02 at cycle  11 NSaved=  11.
 NSaved=11 IEnMin= 9 EnMin= -63.6888662595899     IErMin= 9 ErrMin= 1.01D-02
 ErrMax= 1.44D-02  0.00D+00 EMaxC= 1.00D-01 BMatC= 7.63D-02 BMatP= 3.74D-02
 IDIUse=2 WtCom= 0.00D+00 WtEn= 1.00D+00
 EnCoef did   100 forward-backward iterations
 Coeff-En:   0.000D+00 0.000D+00 0.000D+00 0.000D+00 0.109D-01 0.000D+00
 Coeff-En:   0.000D+00 0.000D+00 0.380D+00 0.414D+00 0.196D+00
 Coeff:      0.000D+00 0.000D+00 0.000D+00 0.000D+00 0.109D-01 0.000D+00
 Coeff:      0.000D+00 0.000D+00 0.380D+00 0.414D+00 0.196D+00
 Gap=    -0.001 Goal=   None    Shift=    0.000
 Gap=    -0.001 Goal=   None    Shift=    0.000
 RMSDP=2.69D-02 MaxDP=1.88D-01 DE=-3.72D-03 OVMax= 9.97D-01

 Cycle  14  Pass 1  IDiag  1:
 E= -63.6895151240781     Delta-E=       -0.025338323241 Rises=F Damp=F
 DIIS: error= 1.02D-02 at cycle  12 NSaved=  12.
 NSaved=12 IEnMin=12 EnMin= -63.6895151240781     IErMin= 9 ErrMin= 1.01D-02
 ErrMax= 1.02D-02  0.00D+00 EMaxC= 1.00D-01 BMatC= 3.19D-02 BMatP= 3.74D-02
 IDIUse=3 WtCom= 8.99D-01 WtEn= 1.01D-01
 EnCoef did   100 forward-backward iterations
 Coeff-Com:  0.102D-02-0.483D-03 0.203D-02-0.265D-03-0.149D-01 0.403D-02
 Coeff-Com: -0.198D-01-0.169D-01 0.371D+00 0.247D+00 0.193D+00 0.233D+00
 Coeff-En:   0.000D+00 0.000D+00 0.000D+00 0.000D+00 0.532D-02 0.000D+00
 Coeff-En:   0.000D+00 0.000D+00 0.412D+00 0.180D+00 0.114D+00 0.289D+00
 Coeff:      0.918D-03-0.434D-03 0.182D-02-0.239D-03-0.128D-01 0.363D-02
 Coeff:     -0.178D-01-0.152D-01 0.375D+00 0.240D+00 0.185D+00 0.239D+00
 Gap=     0.001 Goal=   None    Shift=    0.000
 Gap=     0.001 Goal=   None    Shift=    0.000
 RMSDP=2.88D-03 MaxDP=3.21D-02 DE=-2.53D-02 OVMax= 4.08D-02

 Cycle  15  Pass 1  IDiag  1:
 E= -63.6902359582967     Delta-E=       -0.000720834219 Rises=F Damp=F
 -------------------------------------------------------------------------
 Computing the density matrix at cycle:                       15
 -------------------------------------------------------------------------
 EMin=   -436.4930363239823     
 EMax=    436.4930363239823     
 --------------
 Charge Control
 --------------
 Searching energy boundaries [EMin, EMax] such that
 Total Integrated Spectral Weight (TISW)= 122
 EMin=  -436.49304  EMax=   436.49304  TISW= 121.99999
 --------------------------------------------------
 MULLER method
 Integration of P has needed a max no. of loops  16
 Integration of P has needed a max no. of loops  16
 Integration of P has needed a max no. of loops  16
 Integration of P has needed a max no. of loops  16
 Integration of P has needed a max no. of loops  16
 Integration of P has needed a max no. of loops  16
 Integration of P has needed a max no. of loops  16
 Integration of P has needed a max no. of loops  16
 Integration of P has needed a max no. of loops  16
 Integration of P has needed a max no. of loops  16
 Integration of P has needed a max no. of loops  16
 Integration of P has needed a max no. of loops  16
 Integration of P has needed a max no. of loops  16
 Integration of P has needed a max no. of loops  16
 -----------------------------------------------
 Fermi energy=  -5.90431  +/-  0.00030
 
 Number of alpha electrons:   24.00000
 Number of beta electrons:    24.00000
 Total number of electrons:    48.00000
 -----------------------------------------------
 DIIS: error= 1.05D-02 at cycle  13 NSaved=  13.
 NSaved=13 IEnMin=13 EnMin= -63.6902359582967     IErMin= 9 ErrMin= 1.01D-02
 ErrMax= 1.05D-02  0.00D+00 EMaxC= 1.00D-01 BMatC= 2.84D-02 BMatP= 3.19D-02
 IDIUse=3 WtCom= 8.99D-01 WtEn= 1.01D-01
 EnCoef did   100 forward-backward iterations
 Rare condition: small coef for last iteration: -0.289D-15
 Coeff-Com:  0.979D-03-0.480D-03 0.167D-02 0.174D-02-0.109D+00-0.145D-02
 Coeff-Com:  0.938D-02 0.260D-02 0.272D+00-0.458D+00 0.136D+00-0.629D-01
 Coeff-Com:  0.121D+01
 Coeff-En:   0.000D+00 0.000D+00 0.000D+00 0.000D+00 0.000D+00 0.000D+00
 Coeff-En:   0.000D+00 0.498D-02 0.261D+00 0.291D-01 0.294D+00 0.175D+00
 Coeff-En:   0.236D+00
 Coeff:      0.979D-03-0.480D-03 0.167D-02 0.174D-02-0.109D+00-0.145D-02
 Coeff:      0.938D-02 0.260D-02 0.272D+00-0.458D+00 0.136D+00-0.629D-01
 Coeff:      0.121D+01
 RMSDP=1.30D-03 MaxDP=1.09D-02 DE=-7.21D-04 OVMax= 4.08D-02

 Cycle  16  Pass 1  IDiag  1:
 E= -63.6583294914064     Delta-E=        0.031906466890 Rises=F Damp=F
 -------------------------------------------------------------------------
 Computing the density matrix at cycle:                       16
 -------------------------------------------------------------------------
 EMin=   -436.6143554172835     
 EMax=    436.6143554172835     
 MULLER method
 Integration of P has needed a max no. of loops  16
 Integration of P has needed a max no. of loops  16
 Integration of P has needed a max no. of loops  16
 Integration of P has needed a max no. of loops  16
 Integration of P has needed a max no. of loops  16
 Integration of P has needed a max no. of loops  16
 Integration of P has needed a max no. of loops  16
 Integration of P has needed a max no. of loops  16
 Integration of P has needed a max no. of loops  16
 Integration of P has needed a max no. of loops  16
 -----------------------------------------------
 Fermi energy=  -5.88797  +/-  0.00000
 
 Number of alpha electrons:   24.00000
 Number of beta electrons:    24.00000
 Total number of electrons:    48.00000
 -----------------------------------------------
 RMSDP=1.26D-03 MaxDP=1.02D-02 DE= 3.19D-02 OVMax= 4.08D-02

 Cycle  17  Pass 1  IDiag  1:
 E= -63.6263040784068     Delta-E=        0.032025413000 Rises=F Damp=F
 -------------------------------------------------------------------------
 Computing the density matrix at cycle:                       17
 -------------------------------------------------------------------------
 EMin=   -436.7244873509105     
 EMax=    436.7244873509105     
 MULLER method
 Integration of P has needed a max no. of loops  16
 Integration of P has needed a max no. of loops  16
 Integration of P has needed a max no. of loops  16
 Integration of P has needed a max no. of loops  16
 Integration of P has needed a max no. of loops  16
 Integration of P has needed a max no. of loops  16
 Integration of P has needed a max no. of loops  16
 Integration of P has needed a max no. of loops  16
 Integration of P has needed a max no. of loops  16
 Integration of P has needed a max no. of loops  16
 -----------------------------------------------
 Fermi energy=  -5.87113  +/-  0.00000
 
 Number of alpha electrons:   24.00000
 Number of beta electrons:    24.00000
 Total number of electrons:    48.00000
 -----------------------------------------------
 RMSDP=1.23D-03 MaxDP=9.56D-03 DE= 3.20D-02 OVMax= 4.08D-02

 Cycle  18  Pass 1  IDiag  1:
 E= -63.5942858080263     Delta-E=        0.032018270381 Rises=F Damp=F
 -------------------------------------------------------------------------
 Computing the density matrix at cycle:                       18
 -------------------------------------------------------------------------
 EMin=   -436.8247561127470     
 EMax=    436.8247561127470     
 MULLER method
 Integration of P has needed a max no. of loops  16
 Integration of P has needed a max no. of loops  16
 Integration of P has needed a max no. of loops  16
 Integration of P has needed a max no. of loops  16
 Integration of P has needed a max no. of loops  16
 Integration of P has needed a max no. of loops  16
 Integration of P has needed a max no. of loops  16
 Integration of P has needed a max no. of loops  16
 Integration of P has needed a max no. of loops  16
 Integration of P has needed a max no. of loops  16
 -----------------------------------------------
 Fermi energy=  -5.85448  +/-  0.00000
 
 Number of alpha electrons:   24.00000
 Number of beta electrons:    24.00000
 Total number of electrons:    48.00000
 -----------------------------------------------
 Pulay kick .............
 RMSDP=4.01D-02 MaxDP=3.03D-01 DE= 3.20D-02 OVMax= 4.08D-02

 Cycle  19  Pass 1  IDiag  1:
 E= -62.3824134506390     Delta-E=        1.211872357387 Rises=F Damp=F
 -------------------------------------------------------------------------
 Computing the density matrix at cycle:                       19
 -------------------------------------------------------------------------
 EMin=   -438.9354503048127     
 EMax=    438.9354503048127     
 MULLER method
 Integration of P has needed a max no. of loops  16
 Integration of P has needed a max no. of loops  16
 Integration of P has needed a max no. of loops  16
 Integration of P has needed a max no. of loops  16
 Integration of P has needed a max no. of loops  16
 Integration of P has needed a max no. of loops  16
 Integration of P has needed a max no. of loops  16
 Integration of P has needed a max no. of loops  16
 Integration of P has needed a max no. of loops  16
 Integration of P has needed a max no. of loops  16
 -----------------------------------------------
 Fermi energy=  -5.75877  +/-  0.00016
 
 Number of alpha electrons:   24.00000
 Number of beta electrons:    24.00000
 Total number of electrons:    48.00000
 -----------------------------------------------
 RMSDP=4.63D-04 MaxDP=5.10D-03 DE= 1.21D+00 OVMax= 4.08D-02

 Cycle  20  Pass 1  IDiag  1:
 E= -62.3751399306077     Delta-E=        0.007273520031 Rises=F Damp=F
 -------------------------------------------------------------------------
 Computing the density matrix at cycle:                       20
 -------------------------------------------------------------------------
 EMin=   -438.7664459951833     
 EMax=    438.7664459951833     
 MULLER method
 Integration of P has needed a max no. of loops  16
 Integration of P has needed a max no. of loops  16
 Integration of P has needed a max no. of loops  16
 Integration of P has needed a max no. of loops  16
 Integration of P has needed a max no. of loops  16
 Integration of P has needed a max no. of loops  16
 Integration of P has needed a max no. of loops  16
 Integration of P has needed a max no. of loops  16
 Integration of P has needed a max no. of loops  16
 Integration of P has needed a max no. of loops  16
 -----------------------------------------------
 Fermi energy=  -5.75220  +/-  0.00000
 
 Number of alpha electrons:   24.00000
 Number of beta electrons:    24.00000
 Total number of electrons:    48.00000
 -----------------------------------------------
 RMSDP=4.33D-04 MaxDP=4.70D-03 DE= 7.27D-03 OVMax= 4.08D-02

 Cycle  21  Pass 1  IDiag  1:
 E= -62.3674986034135     Delta-E=        0.007641327194 Rises=F Damp=F
 -------------------------------------------------------------------------
 Computing the density matrix at cycle:                       21
 -------------------------------------------------------------------------
 EMin=   -438.6193525402753     
 EMax=    438.6193525402753     
 MULLER method
 Integration of P has needed a max no. of loops  16
 Integration of P has needed a max no. of loops  16
 Integration of P has needed a max no. of loops  16
 Integration of P has needed a max no. of loops  16
 Integration of P has needed a max no. of loops  16
 Integration of P has needed a max no. of loops  16
 Integration of P has needed a max no. of loops  16
 Integration of P has needed a max no. of loops  16
 Integration of P has needed a max no. of loops  16
 Integration of P has needed a max no. of loops  16
 -----------------------------------------------
 Fermi energy=  -5.74508  +/-  0.00000
 
 Number of alpha electrons:   24.00000
 Number of beta electrons:    24.00000
 Total number of electrons:    48.00000
 -----------------------------------------------
 RMSDP=4.07D-04 MaxDP=4.34D-03 DE= 7.64D-03 OVMax= 4.08D-02

 Cycle  22  Pass 1  IDiag  1:
 E= -62.3595880612883     Delta-E=        0.007910542125 Rises=F Damp=F
 -------------------------------------------------------------------------
 Computing the density matrix at cycle:                       22
 -------------------------------------------------------------------------
 EMin=   -438.4920013610807     
 EMax=    438.4920013610807     
 MULLER method
 Integration of P has needed a max no. of loops  16
 Integration of P has needed a max no. of loops  16
 Integration of P has needed a max no. of loops  16
 Integration of P has needed a max no. of loops  16
 Integration of P has needed a max no. of loops  16
 Integration of P has needed a max no. of loops  16
 Integration of P has needed a max no. of loops  16
 Integration of P has needed a max no. of loops  16
 Integration of P has needed a max no. of loops  16
 Integration of P has needed a max no. of loops  16
 -----------------------------------------------
 Fermi energy=  -5.73825  +/-  0.00000
 
 Number of alpha electrons:   24.00000
 Number of beta electrons:    24.00000
 Total number of electrons:    48.00000
 -----------------------------------------------
 RMSDP=3.84D-04 MaxDP=4.01D-03 DE= 7.91D-03 OVMax= 4.08D-02

 Cycle  23  Pass 1  IDiag  1:
 E= -62.3514925456780     Delta-E=        0.008095515610 Rises=F Damp=F
 -------------------------------------------------------------------------
 Computing the density matrix at cycle:                       23
 -------------------------------------------------------------------------
 EMin=   -438.3821488013281     
 EMax=    438.3821488013281     
 MULLER method
 Integration of P has needed a max no. of loops  16
 Integration of P has needed a max no. of loops  16
 Integration of P has needed a max no. of loops  16
 Integration of P has needed a max no. of loops  16
 Integration of P has needed a max no. of loops  16
 Integration of P has needed a max no. of loops  16
 Integration of P has needed a max no. of loops  16
 Integration of P has needed a max no. of loops  16
 Integration of P has needed a max no. of loops  16
 Integration of P has needed a max no. of loops  16
 -----------------------------------------------
 Fermi energy=  -5.73236  +/-  0.00000
 
 Number of alpha electrons:   24.00000
 Number of beta electrons:    24.00000
 Total number of electrons:    48.00000
 -----------------------------------------------
 Pulay kick .............
 RMSDP=7.58D-03 MaxDP=6.37D-02 DE= 8.10D-03 OVMax= 4.08D-02

 Cycle  24  Pass 1  IDiag  1:
 E= -62.1420933154392     Delta-E=        0.209399230239 Rises=F Damp=F
 -------------------------------------------------------------------------
 Computing the density matrix at cycle:                       24
 -------------------------------------------------------------------------
 EMin=   -437.3680068226681     
 EMax=    437.3680068226681     
 MULLER method
 Integration of P has needed a max no. of loops  16
 Integration of P has needed a max no. of loops  16
 Integration of P has needed a max no. of loops  16
 Integration of P has needed a max no. of loops  16
 Integration of P has needed a max no. of loops  16
 Integration of P has needed a max no. of loops  16
 Integration of P has needed a max no. of loops  16
 Integration of P has needed a max no. of loops  16
 Integration of P has needed a max no. of loops  16
 Integration of P has needed a max no. of loops  16
 -----------------------------------------------
 Fermi energy=  -5.75762  +/-  0.00001
 
 Number of alpha electrons:   24.00000
 Number of beta electrons:    24.00000
 Total number of electrons:    48.00000
 -----------------------------------------------
 RMSDP=1.95D-04 MaxDP=1.61D-03 DE= 2.09D-01 OVMax= 4.08D-02

 Cycle  25  Pass 1  IDiag  1:
 E= -62.1370518635961     Delta-E=        0.005041451843 Rises=F Damp=F
 -------------------------------------------------------------------------
 Computing the density matrix at cycle:                       25
 -------------------------------------------------------------------------
 EMin=   -437.4031880040790     
 EMax=    437.4031880040790     
 --------------
 Charge Control
 --------------
 Searching energy boundaries [EMin, EMax] such that
 Total Integrated Spectral Weight (TISW)= 122
 EMin=  -437.40319  EMax=   437.40319  TISW= 121.99999
 --------------------------------------------------
 MULLER method
 Integration of P has needed a max no. of loops  16
 Integration of P has needed a max no. of loops  16
 Integration of P has needed a max no. of loops  16
 Integration of P has needed a max no. of loops  16
 Integration of P has needed a max no. of loops  16
 Integration of P has needed a max no. of loops  16
 Integration of P has needed a max no. of loops  16
 Integration of P has needed a max no. of loops  16
 Integration of P has needed a max no. of loops  16
 Integration of P has needed a max no. of loops  16
 -----------------------------------------------
 Fermi energy=  -5.75687  +/-  0.00000
 
 Number of alpha electrons:   24.00000
 Number of beta electrons:    24.00000
 Total number of electrons:    48.00000
 -----------------------------------------------
 RMSDP=1.89D-04 MaxDP=1.50D-03 DE= 5.04D-03 OVMax= 4.08D-02

 Cycle  26  Pass 1  IDiag  1:
 E= -62.1320885310702     Delta-E=        0.004963332526 Rises=F Damp=F
 -------------------------------------------------------------------------
 Computing the density matrix at cycle:                       26
 -------------------------------------------------------------------------
 EMin=   -437.4344777407139     
 EMax=    437.4344777407139     
 MULLER method
 Integration of P has needed a max no. of loops  16
 Integration of P has needed a max no. of loops  16
 Integration of P has needed a max no. of loops  16
 Integration of P has needed a max no. of loops  16
 Integration of P has needed a max no. of loops  16
 Integration of P has needed a max no. of loops  16
 Integration of P has needed a max no. of loops  16
 Integration of P has needed a max no. of loops  16
 Integration of P has needed a max no. of loops  16
 Integration of P has needed a max no. of loops  16
 -----------------------------------------------
 Fermi energy=  -5.75627  +/-  0.00000
 
 Number of alpha electrons:   24.00000
 Number of beta electrons:    24.00000
 Total number of electrons:    48.00000
 -----------------------------------------------
[...]

 Alpha  occ. eigenvalues --  -10.02873  -0.52275  -0.49048  -0.45770  -0.45711
 Alpha  occ. eigenvalues --   -0.40457  -0.39744  -0.36498  -0.35142  -0.34069
 Alpha  occ. eigenvalues --   -0.33960  -0.30873  -0.30845  -0.28283  -0.28262
 Alpha  occ. eigenvalues --   -0.26117  -0.25415  -0.22898  -0.22893  -0.22790
 Alpha  occ. eigenvalues --   -0.21229  -0.20400  -0.18618  -0.18457
 Alpha virt. eigenvalues --   -0.18324  -0.17744  -0.15533  -0.15459  -0.12349
 Alpha virt. eigenvalues --   -0.12334  -0.11661  -0.11095  -0.10905  -0.08082
 Alpha virt. eigenvalues --   -0.06336  -0.06310  -0.05436  -0.04827  -0.04802
 Alpha virt. eigenvalues --   -0.03749  -0.00479  -0.00420   0.00203   0.00242
 Alpha virt. eigenvalues --    0.00782   0.00995   0.04594   0.04628   0.05835
 Alpha virt. eigenvalues --    0.07243   0.08122   0.11479   0.11489   0.12403
 Alpha virt. eigenvalues --    0.18479   0.18529   0.18896   0.22977   0.22989
 Alpha virt. eigenvalues --    0.23722   1.13902
  Beta  occ. eigenvalues --  -10.02873  -0.52275  -0.49048  -0.45770  -0.45711
  Beta  occ. eigenvalues --   -0.40457  -0.39744  -0.36498  -0.35142  -0.34069
  Beta  occ. eigenvalues --   -0.33960  -0.30873  -0.30845  -0.28283  -0.28262
  Beta  occ. eigenvalues --   -0.26117  -0.25415  -0.22898  -0.22893  -0.22790
  Beta  occ. eigenvalues --   -0.21229  -0.20400  -0.18618  -0.18457
  Beta virt. eigenvalues --   -0.18324  -0.17744  -0.15533  -0.15459  -0.12349
  Beta virt. eigenvalues --   -0.12334  -0.11661  -0.11095  -0.10905  -0.08082
  Beta virt. eigenvalues --   -0.06336  -0.06310  -0.05436  -0.04827  -0.04802
  Beta virt. eigenvalues --   -0.03749  -0.00479  -0.00420   0.00203   0.00242
  Beta virt. eigenvalues --    0.00782   0.00995   0.04594   0.04628   0.05835
  Beta virt. eigenvalues --    0.07243   0.08122   0.11479   0.11489   0.12403
  Beta virt. eigenvalues --    0.18479   0.18529   0.18896   0.22977   0.22989
  Beta virt. eigenvalues --    0.23722   1.13902
          Condensed to atoms (all electrons):
               1          2          3          4          5          6
     1  Al   4.230573  -0.022033  -0.056728  -0.397491  -0.397491  -0.000869
     2  Al  -0.022033   4.230573  -0.056728  -0.397491  -0.000869  -0.397491
     3  Al  -0.056728  -0.056728   5.565578  -0.381996  -0.381996  -0.381996
     4  Al  -0.397491  -0.397491  -0.381996   4.843522  -0.064132  -0.064132
     5  Al  -0.397491  -0.000869  -0.381996  -0.064132   4.843522  -0.020788
     6  Al  -0.000869  -0.397491  -0.381996  -0.064132  -0.020788   4.843522
     7  Al  -0.022033  -0.000180  -0.056728  -0.000869  -0.397491  -0.000869
     8  Al  -0.000869  -0.000869  -0.381996  -0.020788  -0.064132  -0.064132
     9  Al  -0.000180  -0.022033  -0.056728  -0.000869  -0.000869  -0.397491
    10  Al  -0.256639  -0.027553  -0.182098  -0.198006  -0.198006  -0.029333
    11  Al  -0.027553  -0.256639  -0.182098  -0.198006  -0.029333  -0.198006
    12  Al  -0.027553  -0.000136  -0.182098  -0.029333  -0.198006  -0.029333
    13  Al  -0.000136  -0.027553  -0.182098  -0.029333  -0.029333  -0.198006
    14  Al  -0.003558  -0.003558  -0.033289  -0.008409  -0.008409  -0.008409
    15  C   -0.000001  -0.000001   0.000067   0.000004   0.000004   0.000004
               7          8          9         10         11         12
     1  Al  -0.022033  -0.000869  -0.000180  -0.256639  -0.027553  -0.027553
     2  Al  -0.000180  -0.000869  -0.022033  -0.027553  -0.256639  -0.000136
     3  Al  -0.056728  -0.381996  -0.056728  -0.182098  -0.182098  -0.182098
     4  Al  -0.000869  -0.020788  -0.000869  -0.198006  -0.198006  -0.029333
     5  Al  -0.397491  -0.064132  -0.000869  -0.198006  -0.029333  -0.198006
     6  Al  -0.000869  -0.064132  -0.397491  -0.029333  -0.198006  -0.029333
     7  Al   4.230573  -0.397491  -0.022033  -0.027553  -0.000136  -0.256639
     8  Al  -0.397491   4.843522  -0.397491  -0.029333  -0.029333  -0.198006
     9  Al  -0.022033  -0.397491   4.230573  -0.000136  -0.027553  -0.027553
    10  Al  -0.027553  -0.029333  -0.000136   3.318595   0.313665   0.313665
    11  Al  -0.000136  -0.029333  -0.027553   0.313665   3.318595  -0.071365
    12  Al  -0.256639  -0.198006  -0.027553   0.313665  -0.071365   3.318595
    13  Al  -0.027553  -0.198006  -0.256639  -0.071365   0.313665   0.313665
    14  Al  -0.003558  -0.008409  -0.003558   0.030425   0.030425   0.030425
    15  C   -0.000001   0.000004  -0.000001  -0.001266  -0.001266  -0.001266
              13         14         15
     1  Al  -0.000136  -0.003558  -0.000001
     2  Al  -0.027553  -0.003558  -0.000001
     3  Al  -0.182098  -0.033289   0.000067
     4  Al  -0.029333  -0.008409   0.000004
     5  Al  -0.029333  -0.008409   0.000004
     6  Al  -0.198006  -0.008409   0.000004
     7  Al  -0.027553  -0.003558  -0.000001
     8  Al  -0.198006  -0.008409   0.000004
     9  Al  -0.256639  -0.003558  -0.000001
    10  Al  -0.071365   0.030425  -0.001266
    11  Al   0.313665   0.030425  -0.001266
    12  Al   0.313665   0.030425  -0.001266
    13  Al   3.318595   0.030425  -0.001266
    14  Al   0.030425   2.580774   0.343121
    15  C   -0.001266   0.343121   5.548359
          Atomic-Atomic Spin Densities.
               1          2          3          4          5          6
     1  Al  -0.021184  -0.000057   0.001189  -0.001400  -0.001400   0.000009
     2  Al  -0.000057  -0.021184   0.001189  -0.001400   0.000009  -0.001400
     3  Al   0.001189   0.001189   0.037665   0.007191   0.007191   0.007191
     4  Al  -0.001400  -0.001400   0.007191   0.000401   0.001019   0.001019
     5  Al  -0.001400   0.000009   0.007191   0.001019   0.000401  -0.000035
     6  Al   0.000009  -0.001400   0.007191   0.001019  -0.000035   0.000401
     7  Al  -0.000057   0.000005   0.001189   0.000009  -0.001400   0.000009
     8  Al   0.000009   0.000009   0.007191  -0.000035   0.001019   0.001019
     9  Al   0.000005  -0.000057   0.001189   0.000009   0.000009  -0.001400
    10  Al  -0.000516   0.000320  -0.005339  -0.000030  -0.000030   0.000089
    11  Al   0.000320  -0.000516  -0.005339  -0.000030   0.000089  -0.000030
    12  Al   0.000320   0.000013  -0.005339   0.000089  -0.000030   0.000089
    13  Al   0.000013   0.000320  -0.005339   0.000089   0.000089  -0.000030
    14  Al  -0.000161  -0.000161  -0.001709  -0.001283  -0.001283  -0.001283
    15  C   -0.000001  -0.000001   0.000056   0.000003   0.000003   0.000003
               7          8          9         10         11         12
     1  Al  -0.000057   0.000009   0.000005  -0.000516   0.000320   0.000320
     2  Al   0.000005   0.000009  -0.000057   0.000320  -0.000516   0.000013
     3  Al   0.001189   0.007191   0.001189  -0.005339  -0.005339  -0.005339
     4  Al   0.000009  -0.000035   0.000009  -0.000030  -0.000030   0.000089
     5  Al  -0.001400   0.001019   0.000009  -0.000030   0.000089  -0.000030
     6  Al   0.000009   0.001019  -0.001400   0.000089  -0.000030   0.000089
     7  Al  -0.021184  -0.001400  -0.000057   0.000320   0.000013  -0.000516
     8  Al  -0.001400   0.000401  -0.001400   0.000089   0.000089  -0.000030
     9  Al  -0.000057  -0.001400  -0.021184   0.000013   0.000320   0.000320
    10  Al   0.000320   0.000089   0.000013  -0.020851   0.002121   0.002121
    11  Al   0.000013   0.000089   0.000320   0.002121  -0.020851  -0.000873
    12  Al  -0.000516  -0.000030   0.000320   0.002121  -0.000873  -0.020851
    13  Al   0.000320  -0.000030  -0.000516  -0.000873   0.002121   0.002121
    14  Al  -0.000161  -0.001283  -0.000161  -0.007047  -0.007047  -0.007047
    15  C   -0.000001   0.000003  -0.000001  -0.001186  -0.001186  -0.001186
              13         14         15
     1  Al   0.000013  -0.000161  -0.000001
     2  Al   0.000320  -0.000161  -0.000001
     3  Al  -0.005339  -0.001709   0.000056
     4  Al   0.000089  -0.001283   0.000003
     5  Al   0.000089  -0.001283   0.000003
     6  Al  -0.000030  -0.001283   0.000003
     7  Al   0.000320  -0.000161  -0.000001
     8  Al  -0.000030  -0.001283   0.000003
     9  Al  -0.000516  -0.000161  -0.000001
    10  Al  -0.000873  -0.007047  -0.001186
    11  Al   0.002121  -0.007047  -0.001186
    12  Al   0.002121  -0.007047  -0.001186
    13  Al  -0.020851  -0.007047  -0.001186
    14  Al  -0.007047   0.388978   0.099791
    15  C   -0.001186   0.099791   1.829750
 Mulliken charges and spin densities:
               1          2
     1  Al  -0.017436  -0.022911
     2  Al  -0.017436  -0.022911
     3  Al  -0.049065   0.048177
     4  Al  -0.052671   0.005654
     5  Al  -0.052671   0.005654
     6  Al  -0.052671   0.005654
     7  Al  -0.017436  -0.022911
     8  Al  -0.052671   0.005654
     9  Al  -0.017436  -0.022911
    10  Al   0.044938  -0.030798
    11  Al   0.044938  -0.030798
    12  Al   0.044938  -0.030798
    13  Al   0.044938  -0.030798
    14  Al   0.035563   0.453094
    15  C    0.113506   1.924864
 Sum of Mulliken charges =  -0.00067   2.23392
 Mulliken charges and spin densities with hydrogens summed into heavy atoms:
               1          2
     1  Al  -0.017436  -0.022911
     2  Al  -0.017436  -0.022911
     3  Al  -0.049065   0.048177
     4  Al  -0.052671   0.005654
     5  Al  -0.052671   0.005654
     6  Al  -0.052671   0.005654
     7  Al  -0.017436  -0.022911
     8  Al  -0.052671   0.005654
     9  Al  -0.017436  -0.022911
    10  Al   0.044938  -0.030798
    11  Al   0.044938  -0.030798
    12  Al   0.044938  -0.030798
    13  Al   0.044938  -0.030798
    14  Al   0.035563   0.453094
    15  C    0.113506   1.924864
 Electronic spatial extent (au):  <R**2>=           5863.8522
 Charge=             -0.0007 electrons
 Dipole moment (field-independent basis, Debye):
    X=              0.0000    Y=              0.0000    Z=              6.5938  Tot=              6.5938
 Quadrupole moment (field-independent basis, Debye-Ang):
   XX=           -205.2357   YY=           -205.2357   ZZ=           -232.2601
   XY=              0.0000   XZ=              0.0000   YZ=              0.0000
 Traceless Quadrupole moment (field-independent basis, Debye-Ang):
   XX=              9.0081   YY=              9.0081   ZZ=            -18.0162
   XY=              0.0000   XZ=              0.0000   YZ=              0.0000
 Octapole moment (field-independent basis, Debye-Ang**2):
  XXX=              0.0000  YYY=              0.0000  ZZZ=           3117.7834  XYY=              0.0000
  XXY=              0.0000  XXZ=           1031.4883  XZZ=              0.0000  YZZ=              0.0000
  YYZ=           1031.4883  XYZ=              0.0000
 Hexadecapole moment (field-independent basis, Debye-Ang**3):
 XXXX=          -5457.7218 YYYY=          -5457.7218 ZZZZ=         -33790.1250 XXXY=              0.0000
 XXXZ=              0.0000 YYYX=              0.0000 YYYZ=              0.0000 ZZZX=              0.0000
 ZZZY=              0.0000 XXYY=          -1924.8880 XXZZ=          -6682.7796 YYZZ=          -6682.7796
 XXYZ=              0.0000 YYXZ=              0.0000 ZZXY=              0.0000
 N-N= 1.332615008219D+02 E-N=-3.994844104195D+02  KE= 4.892754953980D+01
                          Isotropic Fermi Contact Couplings
        Atom                 a.u.       MegaHertz       Gauss      10(-4) cm-1
     1  Al(27)            -0.00001      -0.00851      -0.00304      -0.00284
     2  Al(27)            -0.00001      -0.00851      -0.00304      -0.00284
     3  Al(27)             0.00005       0.03173       0.01132       0.01058
     4  Al(27)             0.00000      -0.00271      -0.00097      -0.00090
     5  Al(27)             0.00000      -0.00271      -0.00097      -0.00090
     6  Al(27)             0.00000      -0.00271      -0.00097      -0.00090
     7  Al(27)            -0.00001      -0.00851      -0.00304      -0.00284
     8  Al(27)             0.00000      -0.00271      -0.00097      -0.00090
     9  Al(27)            -0.00001      -0.00851      -0.00304      -0.00284
    10  Al(27)             0.00001       0.00330       0.00118       0.00110
    11  Al(27)             0.00001       0.00330       0.00118       0.00110
    12  Al(27)             0.00001       0.00330       0.00118       0.00110
    13  Al(27)             0.00001       0.00330       0.00118       0.00110
    14  Al(27)            -0.00006      -0.03389      -0.01209      -0.01130
    15  C(13)              0.28815     161.96736      57.79398      54.02650
 --------------------------------------------------------
       Center         ----  Spin Dipole Couplings  ----
                      3XX-RR        3YY-RR        3ZZ-RR
 --------------------------------------------------------
     1   Atom        0.000534     -0.000082     -0.000452
     2   Atom       -0.000082      0.000534     -0.000452
     3   Atom       -0.001855     -0.001855      0.003710
     4   Atom       -0.000828     -0.000828      0.001657
     5   Atom       -0.000828     -0.000828      0.001657
     6   Atom       -0.000828     -0.000828      0.001657
     7   Atom       -0.000082      0.000534     -0.000452
     8   Atom       -0.000828     -0.000828      0.001657
     9   Atom        0.000534     -0.000082     -0.000452
    10   Atom       -0.004201     -0.001333      0.005535
    11   Atom       -0.001333     -0.004201      0.005535
    12   Atom       -0.001333     -0.004201      0.005535
    13   Atom       -0.004201     -0.001333      0.005535
    14   Atom       -0.027450     -0.027450      0.054900
    15   Atom        0.081508      0.081508     -0.163016
 --------------------------------------------------------
                        XY            XZ            YZ
 --------------------------------------------------------
     1   Atom        0.000000     -0.000255      0.000000
     2   Atom        0.000000      0.000000      0.000255
     3   Atom        0.000000      0.000000      0.000000
     4   Atom       -0.000656     -0.000319      0.000319
     5   Atom        0.000656     -0.000319     -0.000319
     6   Atom        0.000656      0.000319      0.000319
     7   Atom        0.000000      0.000000     -0.000255
     8   Atom       -0.000656      0.000319     -0.000319
     9   Atom        0.000000      0.000255      0.000000
    10   Atom        0.000000      0.000684      0.000000
    11   Atom        0.000000      0.000000     -0.000684
    12   Atom        0.000000      0.000000      0.000684
    13   Atom        0.000000     -0.000684      0.000000
    14   Atom        0.000000      0.000000      0.000000
    15   Atom        0.000000      0.000000      0.000000
 --------------------------------------------------------


 ---------------------------------------------------------------------------------
              Anisotropic Spin Dipole Couplings in Principal Axis System
 ---------------------------------------------------------------------------------

       Atom             a.u.   MegaHertz   Gauss  10(-4) cm-1        Axes

              Baa    -0.0005    -0.072    -0.026    -0.024  0.2366  0.0000  0.9716
     1 Al(27) Bbb    -0.0001    -0.011    -0.004    -0.004  0.0000  1.0000  0.0000
              Bcc     0.0006     0.083     0.030     0.028  0.9716  0.0000 -0.2366
 
              Baa    -0.0005    -0.072    -0.026    -0.024  0.0000 -0.2366  0.9716
     2 Al(27) Bbb    -0.0001    -0.011    -0.004    -0.004  1.0000  0.0000  0.0000
              Bcc     0.0006     0.083     0.030     0.028  0.0000  0.9716  0.2366
 
              Baa    -0.0019    -0.258    -0.092    -0.086 -0.0640  0.9980  0.0000
     3 Al(27) Bbb    -0.0019    -0.258    -0.092    -0.086  0.9980  0.0640  0.0000
              Bcc     0.0037     0.516     0.184     0.172  0.0000  0.0000  1.0000
 
              Baa    -0.0015    -0.206    -0.074    -0.069  0.7071  0.7071  0.0000
     4 Al(27) Bbb    -0.0003    -0.039    -0.014    -0.013  0.6886 -0.6886  0.2273
              Bcc     0.0018     0.245     0.087     0.082 -0.1608  0.1608  0.9738
 
              Baa    -0.0015    -0.206    -0.074    -0.069  0.7071 -0.7071  0.0000
     5 Al(27) Bbb    -0.0003    -0.039    -0.014    -0.013  0.6886  0.6886  0.2273
              Bcc     0.0018     0.245     0.087     0.082 -0.1608 -0.1608  0.9738
 
              Baa    -0.0015    -0.206    -0.074    -0.069  0.7071 -0.7071  0.0000
     6 Al(27) Bbb    -0.0003    -0.039    -0.014    -0.013  0.6886  0.6886 -0.2273
              Bcc     0.0018     0.245     0.087     0.082  0.1608  0.1608  0.9738
 
              Baa    -0.0005    -0.072    -0.026    -0.024  0.0000  0.2366  0.9716
     7 Al(27) Bbb    -0.0001    -0.011    -0.004    -0.004  1.0000  0.0000  0.0000
              Bcc     0.0006     0.083     0.030     0.028  0.0000  0.9716 -0.2366
 
              Baa    -0.0015    -0.206    -0.074    -0.069  0.7071  0.7071  0.0000
     8 Al(27) Bbb    -0.0003    -0.039    -0.014    -0.013  0.6886 -0.6886 -0.2273
              Bcc     0.0018     0.245     0.087     0.082  0.1608 -0.1608  0.9738
 
              Baa    -0.0005    -0.072    -0.026    -0.024 -0.2366  0.0000  0.9716
     9 Al(27) Bbb    -0.0001    -0.011    -0.004    -0.004  0.0000  1.0000  0.0000
              Bcc     0.0006     0.083     0.030     0.028  0.9716  0.0000  0.2366
 
              Baa    -0.0042    -0.591    -0.211    -0.197  0.9976  0.0000 -0.0697
    10 Al(27) Bbb    -0.0013    -0.186    -0.066    -0.062  0.0000  1.0000  0.0000
              Bcc     0.0056     0.777     0.277     0.259  0.0697  0.0000  0.9976
 
              Baa    -0.0042    -0.591    -0.211    -0.197  0.0000  0.9976  0.0697
    11 Al(27) Bbb    -0.0013    -0.186    -0.066    -0.062  1.0000  0.0000  0.0000
              Bcc     0.0056     0.777     0.277     0.259  0.0000 -0.0697  0.9976
 
              Baa    -0.0042    -0.591    -0.211    -0.197  0.0000  0.9976 -0.0697
    12 Al(27) Bbb    -0.0013    -0.186    -0.066    -0.062  1.0000  0.0000  0.0000
              Bcc     0.0056     0.777     0.277     0.259  0.0000  0.0697  0.9976
 
              Baa    -0.0042    -0.591    -0.211    -0.197  0.9976  0.0000  0.0697
    13 Al(27) Bbb    -0.0013    -0.186    -0.066    -0.062  0.0000  1.0000  0.0000
              Bcc     0.0056     0.777     0.277     0.259 -0.0697  0.0000  0.9976
 
              Baa    -0.0274    -3.819    -1.363    -1.274 -0.0046  1.0000  0.0000
    14 Al(27) Bbb    -0.0274    -3.819    -1.363    -1.274  1.0000  0.0046  0.0000
              Bcc     0.0549     7.639     2.726     2.548  0.0000  0.0000  1.0000
 
              Baa    -0.1630   -21.875    -7.806    -7.297  0.0000  0.0000  1.0000
    15 C(13)  Bbb     0.0815    10.938     3.903     3.648  0.0423  0.9991  0.0000
              Bcc     0.0815    10.938     3.903     3.648  0.9991 -0.0423  0.0000
 

 ---------------------------------------------------------------------------------

 No NMR shielding tensors so no spin-rotation constants.
 Leave Link  601 at Wed Feb 10 15:05:03 2016, MaxMem=   131072000 cpu:         1.2
 (Enter /home/palacios/gaussian/g09/l9999.exe)
 1\1\GINC-ASUS\FOpt\UBLYP\Gen\C1Al14\PALACIOS\10-Feb-2016\1\\#p ublyp/g
 en pseudo=read Scf=(conver=6,nodamp) opt(z-matrix,maxcycle=100,loose) 
 nosymm\\Al9-Al4-C\\0,1\Al,0,-4.,0.,-6.\Al,0,0.,4.,-6.\Al,0,0.,0.,-6.\A
 l,0,-2.,2.,-6.\Al,0,-2.,-2.,-6.\Al,0,2.,2.,-6.\Al,0,0.,-4.,-6.\Al,0,2.
 ,-2.,-6.\Al,0,4.,0.,-6.\Al,0,-2.,0.,-4.\Al,0,0.,2.,-4.\Al,0,0.,-2.,-4.
 \Al,0,2.,0.,-4.\Al,0,x2,y2,z2\C,0,x1,y1,z1\\x1=0.\y1=0.\z1=0.77120191\
 x2=0.\y2=0.\z2=-1.24689583\\Version=ES64L-G09RevD.01\HF=-63.0108495\S2
 =0.\S2-1=0.\S2A=23.896902\RMSD=9.781e-07\RMSF=5.804e-02\Dipole=0.,0.,2
 .5942081\Quadrupole=6.6973162,6.6973162,-13.3946324,0.,0.,0.\PG=C04V [
 C4(Al1Al1C1),2SGV(Al4),2SGD(Al2)]\\@


 YOU SHOULDN'T LET PEOPLE DRIVE YOU CRAZY
 WHEN YOU KNOW IT'S WITHIN WALKING DISTANCE.
 Job cpu time:       0 days  0 hours 40 minutes 26.4 seconds.
 File lengths (MBytes):  RWF=      5 Int=      0 D2E=      0 Chk=      1 Scr=      1
 Normal termination of Gaussian 09 at Wed Feb 10 15:05:03 2016.
