 Entering Gaussian System, Link 0=g09
 Input=Al9-Al4-Al-Al-Al4-Al9.gjf
 Output=Al9-Al4-Al-Al-Al4-Al9.log
 Initial command:
 /home/palacios/gaussian/g09/l1.exe "/home/palacios/scratch/Gau-6499.inp" -scrdir="/home/palacios/scratch/"
 Entering Link 1 = /home/palacios/gaussian/g09/l1.exe PID=      6501.
  
 Copyright (c) 1988,1990,1992,1993,1995,1998,2003,2009,2013,
            Gaussian, Inc.  All Rights Reserved.
  
 This is part of the Gaussian(R) 09 program.  It is based on
 the Gaussian(R) 03 system (copyright 2003, Gaussian, Inc.),
 the Gaussian(R) 98 system (copyright 1998, Gaussian, Inc.),
 the Gaussian(R) 94 system (copyright 1995, Gaussian, Inc.),
 the Gaussian 92(TM) system (copyright 1992, Gaussian, Inc.),
 the Gaussian 90(TM) system (copyright 1990, Gaussian, Inc.),
 the Gaussian 88(TM) system (copyright 1988, Gaussian, Inc.),
 the Gaussian 86(TM) system (copyright 1986, Carnegie Mellon
 University), and the Gaussian 82(TM) system (copyright 1983,
 Carnegie Mellon University). Gaussian is a federally registered
 trademark of Gaussian, Inc.
  
 This software contains proprietary and confidential information,
 including trade secrets, belonging to Gaussian, Inc.
  
 This software is provided under written license and may be
 used, copied, transmitted, or stored only in accord with that
 written license.
  
 The following legend is applicable only to US Government
 contracts under FAR:
  
                    RESTRICTED RIGHTS LEGEND
  
 Use, reproduction and disclosure by the US Government is
 subject to restrictions as set forth in subparagraphs (a)
 and (c) of the Commercial Computer Software - Restricted
 Rights clause in FAR 52.227-19.
  
 Gaussian, Inc.
 340 Quinnipiac St., Bldg. 40, Wallingford CT 06492
  
  
 ---------------------------------------------------------------
 Warning -- This program may not be used in any manner that
 competes with the business of Gaussian, Inc. or will provide
 assistance to any competitor of Gaussian, Inc.  The licensee
 of this program is prohibited from giving any competitor of
 Gaussian, Inc. access to this program.  By using this program,
 the user acknowledges that Gaussian, Inc. is engaged in the
 business of creating and licensing software in the field of
 computational chemistry and represents and warrants to the
 licensee that it is not a competitor of Gaussian, Inc. and that
 it will not use this program in any manner prohibited above.
 ---------------------------------------------------------------
  

 Cite this work as:
 Gaussian 09, Revision D.01,
 M. J. Frisch, G. W. Trucks, H. B. Schlegel, G. E. Scuseria, 
 M. A. Robb, J. R. Cheeseman, G. Scalmani, V. Barone, B. Mennucci, 
 G. A. Petersson, H. Nakatsuji, M. Caricato, X. Li, H. P. Hratchian, 
 A. F. Izmaylov, J. Bloino, G. Zheng, J. L. Sonnenberg, M. Hada, 
 M. Ehara, K. Toyota, R. Fukuda, J. Hasegawa, M. Ishida, T. Nakajima, 
 Y. Honda, O. Kitao, H. Nakai, T. Vreven, J. A. Montgomery, Jr., 
 J. E. Peralta, F. Ogliaro, M. Bearpark, J. J. Heyd, E. Brothers, 
 K. N. Kudin, V. N. Staroverov, T. Keith, R. Kobayashi, J. Normand, 
 K. Raghavachari, A. Rendell, J. C. Burant, S. S. Iyengar, J. Tomasi, 
 M. Cossi, N. Rega, J. M. Millam, M. Klene, J. E. Knox, J. B. Cross, 
 V. Bakken, C. Adamo, J. Jaramillo, R. Gomperts, R. E. Stratmann, 
 O. Yazyev, A. J. Austin, R. Cammi, C. Pomelli, J. W. Ochterski, 
 R. L. Martin, K. Morokuma, V. G. Zakrzewski, G. A. Voth, 
 P. Salvador, J. J. Dannenberg, S. Dapprich, A. D. Daniels, 
 O. Farkas, J. B. Foresman, J. V. Ortiz, J. Cioslowski, 
 and D. J. Fox, Gaussian, Inc., Wallingford CT, 2013.
 
 ******************************************
 Gaussian 09:  ES64L-G09RevD.01 24-Apr-2013
                28-Feb-2019 
 ******************************************
 %mem=1000MB
 %NProcShared=4
 Will use up to    4 processors via shared memory.
 %Subst L101 ../bin
 %Subst L502 ../bin
 --------------------------------------------
 #p lsda/gen pseudo=read Scf=(conver=5,dsymm)
 --------------------------------------------
 1/38=1/1;
 2/12=2,17=6,18=5,40=1/2;
 3/5=7,11=2,16=1,17=8,25=1,30=1,74=205/1,2,3;
 4//1;
 5/5=2,6=5,17=200,38=5/2;
 6/7=2,8=2,9=2,10=2,28=1/1;
 99/5=1,9=1/99;
 Leave Link    1 at Thu Feb 28 09:59:21 2019, MaxMem=   131072000 cpu:         0.1
 (Enter ../bin/l101.exe)
 ---------------------
 Al9-Al4-Al-Al-Al4-Al9
 ---------------------
 Symbolic Z-matrix:
 Charge =  0 Multiplicity = 1
 Al                   -4.        0.       -6. 
 Al                    0.        4.       -6. 
 Al                    0.        0.       -6. 
 Al                   -2.        2.       -6. 
 Al                   -2.       -2.       -6. 
 Al                    2.        2.       -6. 
 Al                    0.       -4.       -6. 
 Al                    2.       -2.       -6. 
 Al                    4.        0.       -6. 
 Al                   -2.        0.       -4. 
 Al                    0.        2.       -4. 
 Al                    0.       -2.       -4. 
 Al                    2.        0.       -4. 
 Al                    0.        0.       -2. 
 Al                    0.        0.        2. 
 Al                   -2.        0.        4. 
 Al                    0.        2.        4. 
 Al                    0.       -2.        4. 
 Al                    2.        0.        4. 
 Al                   -4.        0.        6. 
 Al                   -2.        2.        6. 
 Al                    0.        4.        6. 
 Al                   -2.       -2.        6. 
 Al                    2.        2.        6. 
 Al                    2.       -2.        6. 
 Al                    0.        0.        6. 
 Al                    0.       -4.        6. 
 Al                    4.        0.        6. 
 
 NAtoms=     28 NQM=       28 NQMF=       0 NMMI=      0 NMMIF=      0
                NMic=       0 NMicF=      0.
                    Isotopes and Nuclear Properties:
 (Nuclear quadrupole moments (NQMom) in fm**2, nuclear magnetic moments (NMagM)
  in nuclear magnetons)

  Atom         1           2           3           4           5           6           7           8           9          10
 IAtWgt=          27          27          27          27          27          27          27          27          27          27
 AtmWgt=  26.9815413  26.9815413  26.9815413  26.9815413  26.9815413  26.9815413  26.9815413  26.9815413  26.9815413  26.9815413
 NucSpn=           5           5           5           5           5           5           5           5           5           5
 AtZEff=   0.0000000   0.0000000   0.0000000   0.0000000   0.0000000   0.0000000   0.0000000   0.0000000   0.0000000   0.0000000
 NQMom=   14.6600000  14.6600000  14.6600000  14.6600000  14.6600000  14.6600000  14.6600000  14.6600000  14.6600000  14.6600000
 NMagM=    3.6415040   3.6415040   3.6415040   3.6415040   3.6415040   3.6415040   3.6415040   3.6415040   3.6415040   3.6415040
 AtZNuc=  13.0000000  13.0000000  13.0000000  13.0000000  13.0000000  13.0000000  13.0000000  13.0000000  13.0000000  13.0000000

  Atom        11          12          13          14          15          16          17          18          19          20
 IAtWgt=          27          27          27          27          27          27          27          27          27          27
 AtmWgt=  26.9815413  26.9815413  26.9815413  26.9815413  26.9815413  26.9815413  26.9815413  26.9815413  26.9815413  26.9815413
 NucSpn=           5           5           5           5           5           5           5           5           5           5
 AtZEff=   0.0000000   0.0000000   0.0000000   0.0000000   0.0000000   0.0000000   0.0000000   0.0000000   0.0000000   0.0000000
 NQMom=   14.6600000  14.6600000  14.6600000  14.6600000  14.6600000  14.6600000  14.6600000  14.6600000  14.6600000  14.6600000
 NMagM=    3.6415040   3.6415040   3.6415040   3.6415040   3.6415040   3.6415040   3.6415040   3.6415040   3.6415040   3.6415040
 AtZNuc=  13.0000000  13.0000000  13.0000000  13.0000000  13.0000000  13.0000000  13.0000000  13.0000000  13.0000000  13.0000000

  Atom        21          22          23          24          25          26          27          28
 IAtWgt=          27          27          27          27          27          27          27          27
 AtmWgt=  26.9815413  26.9815413  26.9815413  26.9815413  26.9815413  26.9815413  26.9815413  26.9815413
 NucSpn=           5           5           5           5           5           5           5           5
 AtZEff=   0.0000000   0.0000000   0.0000000   0.0000000   0.0000000   0.0000000   0.0000000   0.0000000
 NQMom=   14.6600000  14.6600000  14.6600000  14.6600000  14.6600000  14.6600000  14.6600000  14.6600000
 NMagM=    3.6415040   3.6415040   3.6415040   3.6415040   3.6415040   3.6415040   3.6415040   3.6415040
 AtZNuc=  13.0000000  13.0000000  13.0000000  13.0000000  13.0000000  13.0000000  13.0000000  13.0000000
 Leave Link  101 at Thu Feb 28 09:59:21 2019, MaxMem=   131072000 cpu:         0.4
 (Enter /home/palacios/gaussian/g09/l202.exe)
                          Input orientation:                          
 ---------------------------------------------------------------------
 Center     Atomic      Atomic             Coordinates (Angstroms)
 Number     Number       Type             X           Y           Z
 ---------------------------------------------------------------------
      1         13           0       -4.000000    0.000000   -6.000000
      2         13           0        0.000000    4.000000   -6.000000
      3         13           0        0.000000    0.000000   -6.000000
      4         13           0       -2.000000    2.000000   -6.000000
      5         13           0       -2.000000   -2.000000   -6.000000
      6         13           0        2.000000    2.000000   -6.000000
      7         13           0        0.000000   -4.000000   -6.000000
      8         13           0        2.000000   -2.000000   -6.000000
      9         13           0        4.000000    0.000000   -6.000000
     10         13           0       -2.000000    0.000000   -4.000000
     11         13           0        0.000000    2.000000   -4.000000
     12         13           0        0.000000   -2.000000   -4.000000
     13         13           0        2.000000    0.000000   -4.000000
     14         13           0        0.000000    0.000000   -2.000000
     15         13           0        0.000000    0.000000    2.000000
     16         13           0       -2.000000    0.000000    4.000000
     17         13           0        0.000000    2.000000    4.000000
     18         13           0        0.000000   -2.000000    4.000000
     19         13           0        2.000000    0.000000    4.000000
     20         13           0       -4.000000    0.000000    6.000000
     21         13           0       -2.000000    2.000000    6.000000
     22         13           0        0.000000    4.000000    6.000000
     23         13           0       -2.000000   -2.000000    6.000000
     24         13           0        2.000000    2.000000    6.000000
     25         13           0        2.000000   -2.000000    6.000000
     26         13           0        0.000000    0.000000    6.000000
     27         13           0        0.000000   -4.000000    6.000000
     28         13           0        4.000000    0.000000    6.000000
 ---------------------------------------------------------------------
                    Distance matrix (angstroms):
                    1          2          3          4          5
     1  Al   0.000000
     2  Al   5.656854   0.000000
     3  Al   4.000000   4.000000   0.000000
     4  Al   2.828427   2.828427   2.828427   0.000000
     5  Al   2.828427   6.324555   2.828427   4.000000   0.000000
     6  Al   6.324555   2.828427   2.828427   4.000000   5.656854
     7  Al   5.656854   8.000000   4.000000   6.324555   2.828427
     8  Al   6.324555   6.324555   2.828427   5.656854   4.000000
     9  Al   8.000000   5.656854   4.000000   6.324555   6.324555
    10  Al   2.828427   4.898979   2.828427   2.828427   2.828427
    11  Al   4.898979   2.828427   2.828427   2.828427   4.898979
    12  Al   4.898979   6.324555   2.828427   4.898979   2.828427
    13  Al   6.324555   4.898979   2.828427   4.898979   4.898979
    14  Al   5.656854   5.656854   4.000000   4.898979   4.898979
    15  Al   8.944272   8.944272   8.000000   8.485281   8.485281
    16  Al  10.198039  10.954451  10.198039  10.198039  10.198039
    17  Al  10.954451  10.198039  10.198039  10.198039  10.954451
    18  Al  10.954451  11.661904  10.198039  10.954451  10.198039
    19  Al  11.661904  10.954451  10.198039  10.954451  10.954451
    20  Al  12.000000  13.266499  12.649111  12.328828  12.328828
    21  Al  12.328828  12.328828  12.328828  12.000000  12.649111
    22  Al  13.266499  12.000000  12.649111  12.328828  13.564660
    23  Al  12.328828  13.564660  12.328828  12.649111  12.000000
    24  Al  13.564660  12.328828  12.328828  12.649111  13.266499
    25  Al  13.564660  13.564660  12.328828  13.266499  12.649111
    26  Al  12.649111  12.649111  12.000000  12.328828  12.328828
    27  Al  13.266499  14.422205  12.649111  13.564660  12.328828
    28  Al  14.422205  13.266499  12.649111  13.564660  13.564660
                    6          7          8          9         10
     6  Al   0.000000
     7  Al   6.324555   0.000000
     8  Al   4.000000   2.828427   0.000000
     9  Al   2.828427   5.656854   2.828427   0.000000
    10  Al   4.898979   4.898979   4.898979   6.324555   0.000000
    11  Al   2.828427   6.324555   4.898979   4.898979   2.828427
    12  Al   4.898979   2.828427   2.828427   4.898979   2.828427
    13  Al   2.828427   4.898979   2.828427   2.828427   4.000000
    14  Al   4.898979   5.656854   4.898979   5.656854   2.828427
    15  Al   8.485281   8.944272   8.485281   8.944272   6.324555
    16  Al  10.954451  10.954451  10.954451  11.661904   8.000000
    17  Al  10.198039  11.661904  10.954451  10.954451   8.485281
    18  Al  10.954451  10.198039  10.198039  10.954451   8.485281
    19  Al  10.198039  10.954451  10.198039  10.198039   8.944272
    20  Al  13.564660  13.266499  13.564660  14.422205  10.198039
    21  Al  12.649111  13.564660  13.266499  13.564660  10.198039
    22  Al  12.328828  14.422205  13.564660  13.266499  10.954451
    23  Al  13.266499  12.328828  12.649111  13.564660  10.198039
    24  Al  12.000000  13.564660  12.649111  12.328828  10.954451
    25  Al  12.649111  12.328828  12.000000  12.328828  10.954451
    26  Al  12.328828  12.649111  12.328828  12.649111  10.198039
    27  Al  13.564660  12.000000  12.328828  13.266499  10.954451
    28  Al  12.328828  13.266499  12.328828  12.000000  11.661904
                   11         12         13         14         15
    11  Al   0.000000
    12  Al   4.000000   0.000000
    13  Al   2.828427   2.828427   0.000000
    14  Al   2.828427   2.828427   2.828427   0.000000
    15  Al   6.324555   6.324555   6.324555   4.000000   0.000000
    16  Al   8.485281   8.485281   8.944272   6.324555   2.828427
    17  Al   8.000000   8.944272   8.485281   6.324555   2.828427
    18  Al   8.944272   8.000000   8.485281   6.324555   2.828427
    19  Al   8.485281   8.485281   8.000000   6.324555   2.828427
    20  Al  10.954451  10.954451  11.661904   8.944272   5.656854
    21  Al  10.198039  10.954451  10.954451   8.485281   4.898979
    22  Al  10.198039  11.661904  10.954451   8.944272   5.656854
    23  Al  10.954451  10.198039  10.954451   8.485281   4.898979
    24  Al  10.198039  10.954451  10.198039   8.485281   4.898979
    25  Al  10.954451  10.198039  10.198039   8.485281   4.898979
    26  Al  10.198039  10.198039  10.198039   8.000000   4.000000
    27  Al  11.661904  10.198039  10.954451   8.944272   5.656854
    28  Al  10.954451  10.954451  10.198039   8.944272   5.656854
                   16         17         18         19         20
    16  Al   0.000000
    17  Al   2.828427   0.000000
    18  Al   2.828427   4.000000   0.000000
    19  Al   4.000000   2.828427   2.828427   0.000000
    20  Al   2.828427   4.898979   4.898979   6.324555   0.000000
    21  Al   2.828427   2.828427   4.898979   4.898979   2.828427
    22  Al   4.898979   2.828427   6.324555   4.898979   5.656854
    23  Al   2.828427   4.898979   2.828427   4.898979   2.828427
    24  Al   4.898979   2.828427   4.898979   2.828427   6.324555
    25  Al   4.898979   4.898979   2.828427   2.828427   6.324555
    26  Al   2.828427   2.828427   2.828427   2.828427   4.000000
    27  Al   4.898979   6.324555   2.828427   4.898979   5.656854
    28  Al   6.324555   4.898979   4.898979   2.828427   8.000000
                   21         22         23         24         25
    21  Al   0.000000
    22  Al   2.828427   0.000000
    23  Al   4.000000   6.324555   0.000000
    24  Al   4.000000   2.828427   5.656854   0.000000
    25  Al   5.656854   6.324555   4.000000   4.000000   0.000000
    26  Al   2.828427   4.000000   2.828427   2.828427   2.828427
    27  Al   6.324555   8.000000   2.828427   6.324555   2.828427
    28  Al   6.324555   5.656854   6.324555   2.828427   2.828427
                   26         27         28
    26  Al   0.000000
    27  Al   4.000000   0.000000
    28  Al   4.000000   5.656854   0.000000
 Stoichiometry    Al28
 Framework group  D4H[C4(AlAl.AlAl),2SGV(Al8),2SGD(Al4)]
 Deg. of freedom     8
 Full point group                 D4H     NOp  16
 Largest Abelian subgroup         D2H     NOp   8
 Largest concise Abelian subgroup D2H     NOp   8
                         Standard orientation:                         
 ---------------------------------------------------------------------
 Center     Atomic      Atomic             Coordinates (Angstroms)
 Number     Number       Type             X           Y           Z
 ---------------------------------------------------------------------
      1         13           0        0.000000    4.000000    6.000000
      2         13           0       -4.000000    0.000000    6.000000
      3         13           0        0.000000    0.000000    6.000000
      4         13           0       -2.000000    2.000000    6.000000
      5         13           0        2.000000    2.000000    6.000000
      6         13           0       -2.000000   -2.000000    6.000000
      7         13           0        4.000000    0.000000    6.000000
      8         13           0        2.000000   -2.000000    6.000000
      9         13           0        0.000000   -4.000000    6.000000
     10         13           0        0.000000    2.000000    4.000000
     11         13           0       -2.000000    0.000000    4.000000
     12         13           0        2.000000    0.000000    4.000000
     13         13           0        0.000000   -2.000000    4.000000
     14         13           0        0.000000    0.000000    2.000000
     15         13           0        0.000000    0.000000   -2.000000
     16         13           0        0.000000    2.000000   -4.000000
     17         13           0       -2.000000    0.000000   -4.000000
     18         13           0        2.000000    0.000000   -4.000000
     19         13           0        0.000000   -2.000000   -4.000000
     20         13           0        0.000000    4.000000   -6.000000
     21         13           0       -2.000000    2.000000   -6.000000
     22         13           0       -4.000000    0.000000   -6.000000
     23         13           0        2.000000    2.000000   -6.000000
     24         13           0       -2.000000   -2.000000   -6.000000
     25         13           0        2.000000   -2.000000   -6.000000
     26         13           0        0.000000    0.000000   -6.000000
     27         13           0        4.000000    0.000000   -6.000000
     28         13           0        0.000000   -4.000000   -6.000000
 ---------------------------------------------------------------------
 Rotational constants (GHZ):      0.0836185      0.0209046      0.0209046
 Leave Link  202 at Thu Feb 28 09:59:21 2019, MaxMem=   131072000 cpu:         0.0
 (Enter /home/palacios/gaussian/g09/l301.exe)
 General basis read from cards:  (5D, 7F)
 Centers:       1      2      3      4      5      6      7      8      9     10
 Centers:      11     12     13     14     15     16     17     18     19     20
 Centers:      21     22     23     24     25     26     27     28
 S 4 1.0
     Exponent=  9.3510000000D+00 Coefficients= -2.1380000000D-03
     Exponent=  9.5720000000D-01 Coefficients= -2.2640700000D-01
     Exponent=  1.5860000000D-01 Coefficients=  7.5270300000D-01
     Exponent=  5.3810000000D-02 Coefficients=  3.9316600000D-01
 P 4 1.0
     Exponent=  3.9060000000D+00 Coefficients= -8.5700000000D-03
     Exponent=  1.5760000000D+00 Coefficients= -1.5353000000D-02
     Exponent=  1.9770000000D-01 Coefficients=  4.8544000000D-01
     Exponent=  5.7300000000D-02 Coefficients=  6.2200600000D-01
 ****
 ======================================================================================================
                                       Pseudopotential Parameters
 ======================================================================================================
  Center     Atomic      Valence      Angular      Power
  Number     Number     Electrons     Momentum     of R      Exponent        Coefficient   SO-Coeffient
 ======================================================================================================
    1         13            3
                                      D and up 
                                                     2        1.2211000       -0.53798100    0.00000000
                                                     2        3.3681000       -5.45975600    0.00000000
                                                     2        9.7500000      -16.65534300    0.00000000
                                                     1       29.2693000       -6.47521500    0.00000000
                                      S - D
                                                     2        1.5631000      -56.20521300    0.00000000
                                                     2        1.7712000      149.68995500    0.00000000
                                                     2        2.0623000      -91.45439400    0.00000000
                                                     1        3.3583000        3.72894900    0.00000000
                                                     0        2.1300000        3.03799400    0.00000000
                                      P - D
                                                     2        1.8231000       93.67560600    0.00000000
                                                     2        2.1249000     -189.88896800    0.00000000
                                                     2        2.5705000      110.24810400    0.00000000
                                                     1        1.7575000        4.19959600    0.00000000
                                                     0        6.7693000        5.00335600    0.00000000
    2         13            3
                                      D and up 
                                                     2        1.2211000       -0.53798100    0.00000000
                                                     2        3.3681000       -5.45975600    0.00000000
                                                     2        9.7500000      -16.65534300    0.00000000
                                                     1       29.2693000       -6.47521500    0.00000000
                                      S - D
                                                     2        1.5631000      -56.20521300    0.00000000
                                                     2        1.7712000      149.68995500    0.00000000
                                                     2        2.0623000      -91.45439400    0.00000000
                                                     1        3.3583000        3.72894900    0.00000000
                                                     0        2.1300000        3.03799400    0.00000000
                                      P - D
                                                     2        1.8231000       93.67560600    0.00000000
                                                     2        2.1249000     -189.88896800    0.00000000
                                                     2        2.5705000      110.24810400    0.00000000
                                                     1        1.7575000        4.19959600    0.00000000
                                                     0        6.7693000        5.00335600    0.00000000
    3         13            3
                                      D and up 
                                                     2        1.2211000       -0.53798100    0.00000000
                                                     2        3.3681000       -5.45975600    0.00000000
                                                     2        9.7500000      -16.65534300    0.00000000
                                                     1       29.2693000       -6.47521500    0.00000000
                                      S - D
                                                     2        1.5631000      -56.20521300    0.00000000
                                                     2        1.7712000      149.68995500    0.00000000
                                                     2        2.0623000      -91.45439400    0.00000000
                                                     1        3.3583000        3.72894900    0.00000000
                                                     0        2.1300000        3.03799400    0.00000000
                                      P - D
                                                     2        1.8231000       93.67560600    0.00000000
                                                     2        2.1249000     -189.88896800    0.00000000
                                                     2        2.5705000      110.24810400    0.00000000
                                                     1        1.7575000        4.19959600    0.00000000
                                                     0        6.7693000        5.00335600    0.00000000
    4         13            3
                                      D and up 
                                                     2        1.2211000       -0.53798100    0.00000000
                                                     2        3.3681000       -5.45975600    0.00000000
                                                     2        9.7500000      -16.65534300    0.00000000
                                                     1       29.2693000       -6.47521500    0.00000000
                                      S - D
                                                     2        1.5631000      -56.20521300    0.00000000
                                                     2        1.7712000      149.68995500    0.00000000
                                                     2        2.0623000      -91.45439400    0.00000000
                                                     1        3.3583000        3.72894900    0.00000000
                                                     0        2.1300000        3.03799400    0.00000000
                                      P - D
                                                     2        1.8231000       93.67560600    0.00000000
                                                     2        2.1249000     -189.88896800    0.00000000
                                                     2        2.5705000      110.24810400    0.00000000
                                                     1        1.7575000        4.19959600    0.00000000
                                                     0        6.7693000        5.00335600    0.00000000
    5         13            3
                                      D and up 
                                                     2        1.2211000       -0.53798100    0.00000000
                                                     2        3.3681000       -5.45975600    0.00000000
                                                     2        9.7500000      -16.65534300    0.00000000
                                                     1       29.2693000       -6.47521500    0.00000000
                                      S - D
                                                     2        1.5631000      -56.20521300    0.00000000
                                                     2        1.7712000      149.68995500    0.00000000
                                                     2        2.0623000      -91.45439400    0.00000000
                                                     1        3.3583000        3.72894900    0.00000000
                                                     0        2.1300000        3.03799400    0.00000000
                                      P - D
                                                     2        1.8231000       93.67560600    0.00000000
                                                     2        2.1249000     -189.88896800    0.00000000
                                                     2        2.5705000      110.24810400    0.00000000
                                                     1        1.7575000        4.19959600    0.00000000
                                                     0        6.7693000        5.00335600    0.00000000
    6         13            3
                                      D and up 
                                                     2        1.2211000       -0.53798100    0.00000000
                                                     2        3.3681000       -5.45975600    0.00000000
                                                     2        9.7500000      -16.65534300    0.00000000
                                                     1       29.2693000       -6.47521500    0.00000000
                                      S - D
                                                     2        1.5631000      -56.20521300    0.00000000
                                                     2        1.7712000      149.68995500    0.00000000
                                                     2        2.0623000      -91.45439400    0.00000000
                                                     1        3.3583000        3.72894900    0.00000000
                                                     0        2.1300000        3.03799400    0.00000000
                                      P - D
                                                     2        1.8231000       93.67560600    0.00000000
                                                     2        2.1249000     -189.88896800    0.00000000
                                                     2        2.5705000      110.24810400    0.00000000
                                                     1        1.7575000        4.19959600    0.00000000
                                                     0        6.7693000        5.00335600    0.00000000
    7         13            3
                                      D and up 
                                                     2        1.2211000       -0.53798100    0.00000000
                                                     2        3.3681000       -5.45975600    0.00000000
                                                     2        9.7500000      -16.65534300    0.00000000
                                                     1       29.2693000       -6.47521500    0.00000000
                                      S - D
                                                     2        1.5631000      -56.20521300    0.00000000
                                                     2        1.7712000      149.68995500    0.00000000
                                                     2        2.0623000      -91.45439400    0.00000000
                                                     1        3.3583000        3.72894900    0.00000000
                                                     0        2.1300000        3.03799400    0.00000000
                                      P - D
                                                     2        1.8231000       93.67560600    0.00000000
                                                     2        2.1249000     -189.88896800    0.00000000
                                                     2        2.5705000      110.24810400    0.00000000
                                                     1        1.7575000        4.19959600    0.00000000
                                                     0        6.7693000        5.00335600    0.00000000
    8         13            3
                                      D and up 
                                                     2        1.2211000       -0.53798100    0.00000000
                                                     2        3.3681000       -5.45975600    0.00000000
                                                     2        9.7500000      -16.65534300    0.00000000
                                                     1       29.2693000       -6.47521500    0.00000000
                                      S - D
                                                     2        1.5631000      -56.20521300    0.00000000
                                                     2        1.7712000      149.68995500    0.00000000
                                                     2        2.0623000      -91.45439400    0.00000000
                                                     1        3.3583000        3.72894900    0.00000000
                                                     0        2.1300000        3.03799400    0.00000000
                                      P - D
                                                     2        1.8231000       93.67560600    0.00000000
                                                     2        2.1249000     -189.88896800    0.00000000
                                                     2        2.5705000      110.24810400    0.00000000
                                                     1        1.7575000        4.19959600    0.00000000
                                                     0        6.7693000        5.00335600    0.00000000
    9         13            3
                                      D and up 
                                                     2        1.2211000       -0.53798100    0.00000000
                                                     2        3.3681000       -5.45975600    0.00000000
                                                     2        9.7500000      -16.65534300    0.00000000
                                                     1       29.2693000       -6.47521500    0.00000000
                                      S - D
                                                     2        1.5631000      -56.20521300    0.00000000
                                                     2        1.7712000      149.68995500    0.00000000
                                                     2        2.0623000      -91.45439400    0.00000000
                                                     1        3.3583000        3.72894900    0.00000000
                                                     0        2.1300000        3.03799400    0.00000000
                                      P - D
                                                     2        1.8231000       93.67560600    0.00000000
                                                     2        2.1249000     -189.88896800    0.00000000
                                                     2        2.5705000      110.24810400    0.00000000
                                                     1        1.7575000        4.19959600    0.00000000
                                                     0        6.7693000        5.00335600    0.00000000
   10         13            3
                                      D and up 
                                                     2        1.2211000       -0.53798100    0.00000000
                                                     2        3.3681000       -5.45975600    0.00000000
                                                     2        9.7500000      -16.65534300    0.00000000
                                                     1       29.2693000       -6.47521500    0.00000000
                                      S - D
                                                     2        1.5631000      -56.20521300    0.00000000
                                                     2        1.7712000      149.68995500    0.00000000
                                                     2        2.0623000      -91.45439400    0.00000000
                                                     1        3.3583000        3.72894900    0.00000000
                                                     0        2.1300000        3.03799400    0.00000000
                                      P - D
                                                     2        1.8231000       93.67560600    0.00000000
                                                     2        2.1249000     -189.88896800    0.00000000
                                                     2        2.5705000      110.24810400    0.00000000
                                                     1        1.7575000        4.19959600    0.00000000
                                                     0        6.7693000        5.00335600    0.00000000
   11         13            3
                                      D and up 
                                                     2        1.2211000       -0.53798100    0.00000000
                                                     2        3.3681000       -5.45975600    0.00000000
                                                     2        9.7500000      -16.65534300    0.00000000
                                                     1       29.2693000       -6.47521500    0.00000000
                                      S - D
                                                     2        1.5631000      -56.20521300    0.00000000
                                                     2        1.7712000      149.68995500    0.00000000
                                                     2        2.0623000      -91.45439400    0.00000000
                                                     1        3.3583000        3.72894900    0.00000000
                                                     0        2.1300000        3.03799400    0.00000000
                                      P - D
                                                     2        1.8231000       93.67560600    0.00000000
                                                     2        2.1249000     -189.88896800    0.00000000
                                                     2        2.5705000      110.24810400    0.00000000
                                                     1        1.7575000        4.19959600    0.00000000
                                                     0        6.7693000        5.00335600    0.00000000
   12         13            3
                                      D and up 
                                                     2        1.2211000       -0.53798100    0.00000000
                                                     2        3.3681000       -5.45975600    0.00000000
                                                     2        9.7500000      -16.65534300    0.00000000
                                                     1       29.2693000       -6.47521500    0.00000000
                                      S - D
                                                     2        1.5631000      -56.20521300    0.00000000
                                                     2        1.7712000      149.68995500    0.00000000
                                                     2        2.0623000      -91.45439400    0.00000000
                                                     1        3.3583000        3.72894900    0.00000000
                                                     0        2.1300000        3.03799400    0.00000000
                                      P - D
                                                     2        1.8231000       93.67560600    0.00000000
                                                     2        2.1249000     -189.88896800    0.00000000
                                                     2        2.5705000      110.24810400    0.00000000
                                                     1        1.7575000        4.19959600    0.00000000
                                                     0        6.7693000        5.00335600    0.00000000
   13         13            3
                                      D and up 
                                                     2        1.2211000       -0.53798100    0.00000000
                                                     2        3.3681000       -5.45975600    0.00000000
                                                     2        9.7500000      -16.65534300    0.00000000
                                                     1       29.2693000       -6.47521500    0.00000000
                                      S - D
                                                     2        1.5631000      -56.20521300    0.00000000
                                                     2        1.7712000      149.68995500    0.00000000
                                                     2        2.0623000      -91.45439400    0.00000000
                                                     1        3.3583000        3.72894900    0.00000000
                                                     0        2.1300000        3.03799400    0.00000000
                                      P - D
                                                     2        1.8231000       93.67560600    0.00000000
                                                     2        2.1249000     -189.88896800    0.00000000
                                                     2        2.5705000      110.24810400    0.00000000
                                                     1        1.7575000        4.19959600    0.00000000
                                                     0        6.7693000        5.00335600    0.00000000
   14         13            3
                                      D and up 
                                                     2        1.2211000       -0.53798100    0.00000000
                                                     2        3.3681000       -5.45975600    0.00000000
                                                     2        9.7500000      -16.65534300    0.00000000
                                                     1       29.2693000       -6.47521500    0.00000000
                                      S - D
                                                     2        1.5631000      -56.20521300    0.00000000
                                                     2        1.7712000      149.68995500    0.00000000
                                                     2        2.0623000      -91.45439400    0.00000000
                                                     1        3.3583000        3.72894900    0.00000000
                                                     0        2.1300000        3.03799400    0.00000000
                                      P - D
                                                     2        1.8231000       93.67560600    0.00000000
                                                     2        2.1249000     -189.88896800    0.00000000
                                                     2        2.5705000      110.24810400    0.00000000
                                                     1        1.7575000        4.19959600    0.00000000
                                                     0        6.7693000        5.00335600    0.00000000
   15         13            3
                                      D and up 
                                                     2        1.2211000       -0.53798100    0.00000000
                                                     2        3.3681000       -5.45975600    0.00000000
                                                     2        9.7500000      -16.65534300    0.00000000
                                                     1       29.2693000       -6.47521500    0.00000000
                                      S - D
                                                     2        1.5631000      -56.20521300    0.00000000
                                                     2        1.7712000      149.68995500    0.00000000
                                                     2        2.0623000      -91.45439400    0.00000000
                                                     1        3.3583000        3.72894900    0.00000000
                                                     0        2.1300000        3.03799400    0.00000000
                                      P - D
                                                     2        1.8231000       93.67560600    0.00000000
                                                     2        2.1249000     -189.88896800    0.00000000
                                                     2        2.5705000      110.24810400    0.00000000
                                                     1        1.7575000        4.19959600    0.00000000
                                                     0        6.7693000        5.00335600    0.00000000
   16         13            3
                                      D and up 
                                                     2        1.2211000       -0.53798100    0.00000000
                                                     2        3.3681000       -5.45975600    0.00000000
                                                     2        9.7500000      -16.65534300    0.00000000
                                                     1       29.2693000       -6.47521500    0.00000000
                                      S - D
                                                     2        1.5631000      -56.20521300    0.00000000
                                                     2        1.7712000      149.68995500    0.00000000
                                                     2        2.0623000      -91.45439400    0.00000000
                                                     1        3.3583000        3.72894900    0.00000000
                                                     0        2.1300000        3.03799400    0.00000000
                                      P - D
                                                     2        1.8231000       93.67560600    0.00000000
                                                     2        2.1249000     -189.88896800    0.00000000
                                                     2        2.5705000      110.24810400    0.00000000
                                                     1        1.7575000        4.19959600    0.00000000
                                                     0        6.7693000        5.00335600    0.00000000
   17         13            3
                                      D and up 
                                                     2        1.2211000       -0.53798100    0.00000000
                                                     2        3.3681000       -5.45975600    0.00000000
                                                     2        9.7500000      -16.65534300    0.00000000
                                                     1       29.2693000       -6.47521500    0.00000000
                                      S - D
                                                     2        1.5631000      -56.20521300    0.00000000
                                                     2        1.7712000      149.68995500    0.00000000
                                                     2        2.0623000      -91.45439400    0.00000000
                                                     1        3.3583000        3.72894900    0.00000000
                                                     0        2.1300000        3.03799400    0.00000000
                                      P - D
                                                     2        1.8231000       93.67560600    0.00000000
                                                     2        2.1249000     -189.88896800    0.00000000
                                                     2        2.5705000      110.24810400    0.00000000
                                                     1        1.7575000        4.19959600    0.00000000
                                                     0        6.7693000        5.00335600    0.00000000
   18         13            3
                                      D and up 
                                                     2        1.2211000       -0.53798100    0.00000000
                                                     2        3.3681000       -5.45975600    0.00000000
                                                     2        9.7500000      -16.65534300    0.00000000
                                                     1       29.2693000       -6.47521500    0.00000000
                                      S - D
                                                     2        1.5631000      -56.20521300    0.00000000
                                                     2        1.7712000      149.68995500    0.00000000
                                                     2        2.0623000      -91.45439400    0.00000000
                                                     1        3.3583000        3.72894900    0.00000000
                                                     0        2.1300000        3.03799400    0.00000000
                                      P - D
                                                     2        1.8231000       93.67560600    0.00000000
                                                     2        2.1249000     -189.88896800    0.00000000
                                                     2        2.5705000      110.24810400    0.00000000
                                                     1        1.7575000        4.19959600    0.00000000
                                                     0        6.7693000        5.00335600    0.00000000
   19         13            3
                                      D and up 
                                                     2        1.2211000       -0.53798100    0.00000000
                                                     2        3.3681000       -5.45975600    0.00000000
                                                     2        9.7500000      -16.65534300    0.00000000
                                                     1       29.2693000       -6.47521500    0.00000000
                                      S - D
                                                     2        1.5631000      -56.20521300    0.00000000
                                                     2        1.7712000      149.68995500    0.00000000
                                                     2        2.0623000      -91.45439400    0.00000000
                                                     1        3.3583000        3.72894900    0.00000000
                                                     0        2.1300000        3.03799400    0.00000000
                                      P - D
                                                     2        1.8231000       93.67560600    0.00000000
                                                     2        2.1249000     -189.88896800    0.00000000
                                                     2        2.5705000      110.24810400    0.00000000
                                                     1        1.7575000        4.19959600    0.00000000
                                                     0        6.7693000        5.00335600    0.00000000
   20         13            3
                                      D and up 
                                                     2        1.2211000       -0.53798100    0.00000000
                                                     2        3.3681000       -5.45975600    0.00000000
                                                     2        9.7500000      -16.65534300    0.00000000
                                                     1       29.2693000       -6.47521500    0.00000000
                                      S - D
                                                     2        1.5631000      -56.20521300    0.00000000
                                                     2        1.7712000      149.68995500    0.00000000
                                                     2        2.0623000      -91.45439400    0.00000000
                                                     1        3.3583000        3.72894900    0.00000000
                                                     0        2.1300000        3.03799400    0.00000000
                                      P - D
                                                     2        1.8231000       93.67560600    0.00000000
                                                     2        2.1249000     -189.88896800    0.00000000
                                                     2        2.5705000      110.24810400    0.00000000
                                                     1        1.7575000        4.19959600    0.00000000
                                                     0        6.7693000        5.00335600    0.00000000
   21         13            3
                                      D and up 
                                                     2        1.2211000       -0.53798100    0.00000000
                                                     2        3.3681000       -5.45975600    0.00000000
                                                     2        9.7500000      -16.65534300    0.00000000
                                                     1       29.2693000       -6.47521500    0.00000000
                                      S - D
                                                     2        1.5631000      -56.20521300    0.00000000
                                                     2        1.7712000      149.68995500    0.00000000
                                                     2        2.0623000      -91.45439400    0.00000000
                                                     1        3.3583000        3.72894900    0.00000000
                                                     0        2.1300000        3.03799400    0.00000000
                                      P - D
                                                     2        1.8231000       93.67560600    0.00000000
                                                     2        2.1249000     -189.88896800    0.00000000
                                                     2        2.5705000      110.24810400    0.00000000
                                                     1        1.7575000        4.19959600    0.00000000
                                                     0        6.7693000        5.00335600    0.00000000
   22         13            3
                                      D and up 
                                                     2        1.2211000       -0.53798100    0.00000000
                                                     2        3.3681000       -5.45975600    0.00000000
                                                     2        9.7500000      -16.65534300    0.00000000
                                                     1       29.2693000       -6.47521500    0.00000000
                                      S - D
                                                     2        1.5631000      -56.20521300    0.00000000
                                                     2        1.7712000      149.68995500    0.00000000
                                                     2        2.0623000      -91.45439400    0.00000000
                                                     1        3.3583000        3.72894900    0.00000000
                                                     0        2.1300000        3.03799400    0.00000000
                                      P - D
                                                     2        1.8231000       93.67560600    0.00000000
                                                     2        2.1249000     -189.88896800    0.00000000
                                                     2        2.5705000      110.24810400    0.00000000
                                                     1        1.7575000        4.19959600    0.00000000
                                                     0        6.7693000        5.00335600    0.00000000
   23         13            3
                                      D and up 
                                                     2        1.2211000       -0.53798100    0.00000000
                                                     2        3.3681000       -5.45975600    0.00000000
                                                     2        9.7500000      -16.65534300    0.00000000
                                                     1       29.2693000       -6.47521500    0.00000000
                                      S - D
                                                     2        1.5631000      -56.20521300    0.00000000
                                                     2        1.7712000      149.68995500    0.00000000
                                                     2        2.0623000      -91.45439400    0.00000000
                                                     1        3.3583000        3.72894900    0.00000000
                                                     0        2.1300000        3.03799400    0.00000000
                                      P - D
                                                     2        1.8231000       93.67560600    0.00000000
                                                     2        2.1249000     -189.88896800    0.00000000
                                                     2        2.5705000      110.24810400    0.00000000
                                                     1        1.7575000        4.19959600    0.00000000
                                                     0        6.7693000        5.00335600    0.00000000
   24         13            3
                                      D and up 
                                                     2        1.2211000       -0.53798100    0.00000000
                                                     2        3.3681000       -5.45975600    0.00000000
                                                     2        9.7500000      -16.65534300    0.00000000
                                                     1       29.2693000       -6.47521500    0.00000000
                                      S - D
                                                     2        1.5631000      -56.20521300    0.00000000
                                                     2        1.7712000      149.68995500    0.00000000
                                                     2        2.0623000      -91.45439400    0.00000000
                                                     1        3.3583000        3.72894900    0.00000000
                                                     0        2.1300000        3.03799400    0.00000000
                                      P - D
                                                     2        1.8231000       93.67560600    0.00000000
                                                     2        2.1249000     -189.88896800    0.00000000
                                                     2        2.5705000      110.24810400    0.00000000
                                                     1        1.7575000        4.19959600    0.00000000
                                                     0        6.7693000        5.00335600    0.00000000
   25         13            3
                                      D and up 
                                                     2        1.2211000       -0.53798100    0.00000000
                                                     2        3.3681000       -5.45975600    0.00000000
                                                     2        9.7500000      -16.65534300    0.00000000
                                                     1       29.2693000       -6.47521500    0.00000000
                                      S - D
                                                     2        1.5631000      -56.20521300    0.00000000
                                                     2        1.7712000      149.68995500    0.00000000
                                                     2        2.0623000      -91.45439400    0.00000000
                                                     1        3.3583000        3.72894900    0.00000000
                                                     0        2.1300000        3.03799400    0.00000000
                                      P - D
                                                     2        1.8231000       93.67560600    0.00000000
                                                     2        2.1249000     -189.88896800    0.00000000
                                                     2        2.5705000      110.24810400    0.00000000
                                                     1        1.7575000        4.19959600    0.00000000
                                                     0        6.7693000        5.00335600    0.00000000
   26         13            3
                                      D and up 
                                                     2        1.2211000       -0.53798100    0.00000000
                                                     2        3.3681000       -5.45975600    0.00000000
                                                     2        9.7500000      -16.65534300    0.00000000
                                                     1       29.2693000       -6.47521500    0.00000000
                                      S - D
                                                     2        1.5631000      -56.20521300    0.00000000
                                                     2        1.7712000      149.68995500    0.00000000
                                                     2        2.0623000      -91.45439400    0.00000000
                                                     1        3.3583000        3.72894900    0.00000000
                                                     0        2.1300000        3.03799400    0.00000000
                                      P - D
                                                     2        1.8231000       93.67560600    0.00000000
                                                     2        2.1249000     -189.88896800    0.00000000
                                                     2        2.5705000      110.24810400    0.00000000
                                                     1        1.7575000        4.19959600    0.00000000
                                                     0        6.7693000        5.00335600    0.00000000
   27         13            3
                                      D and up 
                                                     2        1.2211000       -0.53798100    0.00000000
                                                     2        3.3681000       -5.45975600    0.00000000
                                                     2        9.7500000      -16.65534300    0.00000000
                                                     1       29.2693000       -6.47521500    0.00000000
                                      S - D
                                                     2        1.5631000      -56.20521300    0.00000000
                                                     2        1.7712000      149.68995500    0.00000000
                                                     2        2.0623000      -91.45439400    0.00000000
                                                     1        3.3583000        3.72894900    0.00000000
                                                     0        2.1300000        3.03799400    0.00000000
                                      P - D
                                                     2        1.8231000       93.67560600    0.00000000
                                                     2        2.1249000     -189.88896800    0.00000000
                                                     2        2.5705000      110.24810400    0.00000000
                                                     1        1.7575000        4.19959600    0.00000000
                                                     0        6.7693000        5.00335600    0.00000000
   28         13            3
                                      D and up 
                                                     2        1.2211000       -0.53798100    0.00000000
                                                     2        3.3681000       -5.45975600    0.00000000
                                                     2        9.7500000      -16.65534300    0.00000000
                                                     1       29.2693000       -6.47521500    0.00000000
                                      S - D
                                                     2        1.5631000      -56.20521300    0.00000000
                                                     2        1.7712000      149.68995500    0.00000000
                                                     2        2.0623000      -91.45439400    0.00000000
                                                     1        3.3583000        3.72894900    0.00000000
                                                     0        2.1300000        3.03799400    0.00000000
                                      P - D
                                                     2        1.8231000       93.67560600    0.00000000
                                                     2        2.1249000     -189.88896800    0.00000000
                                                     2        2.5705000      110.24810400    0.00000000
                                                     1        1.7575000        4.19959600    0.00000000
                                                     0        6.7693000        5.00335600    0.00000000
 ======================================================================================================
 Ernie: Thresh=  0.10000D-02 Tol=  0.10000D-05 Strict=F.
 There are    20 symmetry adapted cartesian basis functions of AG  symmetry.
 There are     8 symmetry adapted cartesian basis functions of B1G symmetry.
 There are    14 symmetry adapted cartesian basis functions of B2G symmetry.
 There are    14 symmetry adapted cartesian basis functions of B3G symmetry.
 There are     8 symmetry adapted cartesian basis functions of AU  symmetry.
 There are    20 symmetry adapted cartesian basis functions of B1U symmetry.
 There are    14 symmetry adapted cartesian basis functions of B2U symmetry.
 There are    14 symmetry adapted cartesian basis functions of B3U symmetry.
 There are    20 symmetry adapted basis functions of AG  symmetry.
 There are     8 symmetry adapted basis functions of B1G symmetry.
 There are    14 symmetry adapted basis functions of B2G symmetry.
 There are    14 symmetry adapted basis functions of B3G symmetry.
 There are     8 symmetry adapted basis functions of AU  symmetry.
 There are    20 symmetry adapted basis functions of B1U symmetry.
 There are    14 symmetry adapted basis functions of B2U symmetry.
 There are    14 symmetry adapted basis functions of B3U symmetry.
   112 basis functions,   448 primitive gaussians,   112 cartesian basis functions
    42 alpha electrons       42 beta electrons
       nuclear repulsion energy       312.0036595716 Hartrees.
 IExCor=  205 DFT=T Ex=S Corr=VWN ExCW=0 ScaHFX=  0.000000
 ScaDFX=  1.000000  1.000000  1.000000  1.000000 ScalE2=  1.000000  1.000000
 IRadAn=      0 IRanWt=     -1 IRanGd=            0 ICorTp=0 IEmpDi=  4
 NAtoms=   28 NActive=   28 NUniq=    5 SFac= 4.00D+00 NAtFMM=   60 NAOKFM=F Big=F
 Integral buffers will be    131072 words long.
 Raffenetti 2 integral format.
 Two-electron integral symmetry is turned on.
 Leave Link  301 at Thu Feb 28 09:59:21 2019, MaxMem=   131072000 cpu:         0.2
 (Enter /home/palacios/gaussian/g09/l302.exe)
 NPDir=0 NMtPBC=     1 NCelOv=     1 NCel=       1 NClECP=     1 NCelD=      1
         NCelK=      1 NCelE2=     1 NClLst=     1 CellRange=     0.0.
 One-electron integrals computed using PRISM.
 One-electron integral symmetry used in STVInt
  16 Symmetry operations used in ECPInt.
 ECPInt:  NShTT=    1596 NPrTT=   25536 LenC2=    1597 LenP2D=   17902.
 LDataN:  DoStor=T MaxTD1= 3 Len=   28
 NBasis=   112 RedAO= T EigKep=  6.62D-02  NBF=    20     8    14    14     8    20    14    14
 NBsUse=   112 1.00D-06 EigRej= -1.00D+00 NBFU=    20     8    14    14     8    20    14    14
 Precomputing XC quadrature grid using
 IXCGrd= 4 IRadAn=           0 IRanWt=          -1 IRanGd=           0 AccXCQ= 0.00D+00.
 Generated NRdTot=       0 NPtTot=           0 NUsed=           0 NTot=          32
 NSgBfM=   112   112   112   112   112 MxSgAt=    28 MxSgA2=    28.
 Leave Link  302 at Thu Feb 28 09:59:22 2019, MaxMem=   131072000 cpu:         3.5
 (Enter /home/palacios/gaussian/g09/l303.exe)
 DipDrv:  MaxL=1.
 Leave Link  303 at Thu Feb 28 09:59:22 2019, MaxMem=   131072000 cpu:         0.2
 (Enter /home/palacios/gaussian/g09/l401.exe)
 ExpMin= 5.38D-02 ExpMax= 9.35D+00 ExpMxC= 1.58D+00 IAcc=2 IRadAn=         4 AccDes= 0.00D+00
 Harris functional with IExCor=  205 and IRadAn=       4 diagonalized for initial guess.
 HarFok:  IExCor=  205 AccDes= 0.00D+00 IRadAn=         4 IDoV= 1 UseB2=F ITyADJ=14
 ICtDFT=  3500011 ScaDFX=  1.000000  1.000000  1.000000  1.000000
 FoFCou: FMM=F IPFlag=           0 FMFlag=      100000 FMFlg1=           0
         NFxFlg=           0 DoJE=T BraDBF=F KetDBF=T FulRan=T
         wScrn=  0.000000 ICntrl=     500 IOpCl=  0 I1Cent=   200000004 NGrid=           0
         NMat0=    1 NMatS0=      1 NMatT0=    0 NMatD0=    1 NMtDS0=    0 NMtDT0=    0
 Petite list used in FoFCou.
 Harris En= -56.9538190635594    
 JPrj=0 DoOrth=F DoCkMO=F.
 Initial guess orbital symmetries:
       Occupied  (A1G) (A2U) (EU) (EU) (EG) (EG) (A1G) (A2U) (B2U)
                 (B1G) (B2G) (B1U) (A1G) (A2U) (EG) (EG) (EU) (EU)
                 (EG) (EG) (EU) (EU) (A1G) (A2U) (B1G) (B2U) (EU)
                 (EU) (EG) (EG) (A1G) (A2U) (B2G) (B1U) (A1G) (A2G)
                 (A1U) (EU) (EU) (A2U) (EG) (EG)
       Virtual   (A1G) (B1G) (B2U) (EU) (EU) (EG) (EG) (A2U) (EU)
                 (EU) (EG) (EG) (B2G) (B1U) (B1G) (B2U) (A1G) (A2U)
                 (EU) (EU) (EG) (EG) (A1G) (A2U) (EU) (EU) (EG)
                 (EG) (B2G) (B1U) (EU) (EU) (A1G) (A2U) (EG) (EG)
                 (EU) (EU) (EG) (EG) (B1G) (A2G) (A1U) (B2U) (B2G)
                 (B1U) (A1G) (A2U) (EU) (EU) (B1G) (B2U) (EG) (EG)
                 (A1G) (A2G) (A1U) (A2U) (EU) (EU) (EG) (EG) (EU)
                 (EU) (EG) (EG) (A1G) (A2U) (B1G) (B2U)
 The electronic state of the initial guess is 1-A1G.
 Leave Link  401 at Thu Feb 28 09:59:22 2019, MaxMem=   131072000 cpu:         0.7
 (Enter ../bin/l502.exe)
 Closed shell SCF:
 Using DIIS extrapolation, IDIIS=  1040.
 Integral symmetry usage will be decided dynamically.
 Keep J ints in memory in symmetry-blocked form, NReq=22622258.
 IVT=       59402 IEndB=       59402 NGot=   131072000 MDV=   128474811
 LenX=   128474811 LenY=   128461826
 Requested convergence on RMS density matrix=1.00D-05 within 128 cycles.
 Requested convergence on MAX density matrix=1.00D-03.
 Requested convergence on             energy=1.00D-03.
 No special actions if energy rises.
 FoFCou: FMM=F IPFlag=           0 FMFlag=           0 FMFlg1=           0
         NFxFlg=           0 DoJE=F BraDBF=F KetDBF=F FulRan=T
         wScrn=  0.000000 ICntrl=     600 IOpCl=  0 I1Cent=           0 NGrid=           0
         NMat0=    1 NMatS0=   6328 NMatT0=    0 NMatD0=    1 NMtDS0=    0 NMtDT0=    0
 Petite list used in FoFCou.
 Integral accuracy reduced to 1.0D-05 until final iterations.

 Cycle   1  Pass 0  IDiag  1:
 
  ****************************************************************** 
  ***                                                            *** 
  ***                      A l i c a n t e                       *** 
  ***                      N a n o                               *** 
  ***                      T r a n s p o r t                     *** 
  ***                      G 0 9                                 *** 
  ***                                                            *** 
  ****************************************************************** 
  ***                     Version: 2.5.0                         *** 
  ****************************************************************** 
  *  Copyright (c) by                                              * 
  *                                                                * 
  *  Juan Jose Palacios (1)                                        * 
  *  David Jacob (2)                                               * 
  *  Maria Soriano (1,5)                                           * 
  *  Angel J. Perez-Jimenez (3)                                    * 
  *  Emilio SanFabian (3)                                          * 
  *  Jose Antonio Antonio Verges (4)                               * 
  *  Enrique Louis (5)                                             * 
  *  Wynand Dednam (5)                                             * 
  *                                                                * 
  * (1) Departamento de Fisica de la Materia Condensada            * 
  *     Universidad Autonoma de Madrid                             * 
  *     28049 Madrid (SPAIN)                                       * 
  * (2) Theory Department                                          * 
  *     Max-Planck-Institute for Microstructure Physics            * 
  *     Halle, 06120 (GERMANY)                                     * 
  * (3) Departamento de Quimica Fisica                             * 
  *     Universidad de Alicante                                    * 
  *     03690 Alicante (SPAIN)                                     * 
  * (4) Insto. de Ciencias de Materiales de Madrid (ICMM)          * 
  *     Consejo Superior de Investigacion y Ciencia (CSIC)         * 
  *     28049 Madrid (SPAIN)                                       * 
  * (5) Departamento de Fisica Aplicada                            * 
  *     Universidad de Alicante                                    * 
  *     03690 Alicante (SPAIN)                                     * 
  *                                                                * 
  ****************************************************************** 
 
  ****************************************************************** 
  *                                                                * 
  *              Initializing ANT.G09 modules                      * 
  *                                                                * 
  ****************************************************************** 
 
 Scanning Al9-Al4-Al-Al-Al4-Al9.ant file for parameter specifications...
 Done.
 ****************************
 Basic calculation parameters
 ****************************
 ALPHA      =    2.9999999999999999E-002
 NPULAY     =                         4
 CHARGEACC  =    1.0000000000000001E-005  %
 FERMIACC   =    1.0000000000000001E-005  %
 PACC       =    9.9999999999999995E-008  %
 FULLACC    =   F
 MAX        =                        10
 SELFACC    =    9.9999999999999995E-007
 SMALL      =    0.1000000000000000     
 SMALLD     =    0.1000000000000000       A
 BIASVOLT   =     0.000000000000000       V
 QEXCESS    =     0.000000000000000      electrons
 ETA        =    1.0000000000000000E-003
 GLUE       =     1.000000000000000     
 FERMISTART =    -5.000000000000000       eV
 SOC        =   F
 SOCFAC     =                         1
 SOC_CFF_P  =     0.000000000000000       eV
 SOC_CFF_D  =     0.000000000000000       eV
 SOC_CFF_F  =     0.000000000000000       eV
 THETA      =     0.000000000000000       degrees
 PHI        =     0.000000000000000       degrees
 SL         =    1.0000000000000000E-002
 DMIMAG     =   F
 FMIXING    =   F
 ************************
 Bethe lattice parameters
 ************************
 TYPE1      = BETHE     
 TYPE2      = BETHE     
 BLPAR1     = Papacon             
 BLPAR2     = Papacon             
 NEMBED1    = ? 
 NEMBED2    = ? 
 NATOMEL1   = ? 
 NATOMEL2   = ? 
 OVERLAP    = System Overlap
 *************************
 Spin transport parameters
 *************************
 SWOFFSPL   =    1.0000000000000000E-003
 NSPINLOCK  =                         0
 NALPHA     =                        -1
 NBETA      =                        -1
 DU         =   F
 UD         =   F
 DD         =   F
 MRSTART    =                         0
 SPINDEL    =   F
 SPINEDIT   =                         0
 SPINROT    =                         0
 ***********************
 Correlations parameters
 ***********************
 CORRBLOCKS =                         0
 PORTHO     =   F
 HYBFUNC    =   F
 DFT+U      =   F
 DIAGCORRBL =   F
 *****************
 Output parameters
 *****************
 HAMILTON   =   F
 MULLIKEN   =   F
 HTRANSM    =   F
 ESTEP      =    1.0000000000000000E-002
 DOSENERGY  =     0.000000000000000     
 EW1        =    -3.000000000000000     
 EW2        =     3.000000000000000     
 LDOS_BEG   =                         1
 LDOS_END   =                         0
 RTM_BEG    =                         1
 RTM_END    =                         0
 NCHANNELS  =                         0
 LEADDOS    =   F
 ANT1D      =   F
 PRTHATOM   =                         1
 -------------------
 Initializing device
 -------------------
 ----------------------------------------------------------
 Analyzing cluster for the connection of the  Bethe Lattice
 ----------------------------------------------------------
 
 Atom type of lead 1: Al
 Atom type of lead 2: Al
 
    1   13   3.    4    1    4
    2   13   3.    4    5    8
    3   13   3.    4    9   12
    4   13   3.    4   13   16
    5   13   3.    4   17   20
    6   13   3.    4   21   24
    7   13   3.    4   25   28
    8   13   3.    4   29   32
    9   13   3.    4   33   36
   10   13   3.    4   37   40
   11   13   3.    4   41   44
   12   13   3.    4   45   48
   13   13   3.    4   49   52
   14   13   3.    4   53   56
   15   13   3.    4   57   60
   16   13   3.    4   61   64
   17   13   3.    4   65   68
   18   13   3.    4   69   72
   19   13   3.    4   73   76
   20   13   3.    4   77   80
   21   13   3.    4   81   84
   22   13   3.    4   85   88
   23   13   3.    4   89   92
   24   13   3.    4   93   96
   25   13   3.    4   97  100
   26   13   3.    4  101  104
   27   13   3.    4  105  108
   28   13   3.    4  109  112
 
  Center of charge:
   0.000000   0.000000   0.000000
 
  Atoms in left electrode:                       14
   1  Al   0.000000   7.558905  11.338357
   2  Al  -7.558905   0.000000  11.338357
   3  Al   0.000000   0.000000  11.338357
   4  Al  -3.779452   3.779452  11.338357
[...]
 Atom:  27   -7.076361
 Atom:  28   -7.076361
 
 --------------------------------
 --- Calculating Transmission ---
 ---  (and DOS if required)   ---
 --------------------------------
 
 -------------------------------------
 ---  Mulliken population analysis ---
 -------------------------------------
 ----------------------
 Charges in electrode 1
 ----------------------
 Atom:   1  El.dens:  3.0400
 Atom:   2  El.dens:  3.0400
 Atom:   3  El.dens:  2.8346
 Atom:   4  El.dens:  3.0220
 Atom:   5  El.dens:  3.0220
 Atom:   6  El.dens:  3.0220
 Atom:   7  El.dens:  3.0400
 Atom:   8  El.dens:  3.0220
 Atom:   9  El.dens:  3.0400
 Atom:  10  El.dens:  2.9808
 Atom:  11  El.dens:  2.9808
 Atom:  12  El.dens:  2.9808
 Atom:  13  El.dens:  2.9808
 Atom:  14  El.dens:  2.9940
 ---------------------------------------------------------
 Total num. of electrons in electrode 1:    41.99999999999998     
 ---------------------------------------------------------
 ----------------------------------------------------
 Total num. of electrons in molecule:    0.000000000000000     
 ----------------------------------------------------
 ----------------------
 Charges in electrode 2
 ----------------------
 Atom:  15  El.dens:  2.9940
 Atom:  16  El.dens:  2.9808
 Atom:  17  El.dens:  2.9808
 Atom:  18  El.dens:  2.9808
 Atom:  19  El.dens:  2.9808
 Atom:  20  El.dens:  3.0400
 Atom:  21  El.dens:  3.0220
 Atom:  22  El.dens:  3.0400
 Atom:  23  El.dens:  3.0220
 Atom:  24  El.dens:  3.0220
 Atom:  25  El.dens:  3.0220
 Atom:  26  El.dens:  2.8346
 Atom:  27  El.dens:  3.0400
 Atom:  28  El.dens:  3.0400
 ---------------------------------------------------------
 Total num. of electrons in electrode 2:    41.99999999999999     
 ---------------------------------------------------------
  ----------------- End of ANT.G09 ------------------- 
 Leave Link  502 at Thu Feb 28 10:10:18 2019, MaxMem=   131072000 cpu:      2622.1
 (Enter /home/palacios/gaussian/g09/l601.exe)
 Copying SCF densities to generalized density rwf, IOpCl= 0 IROHF=0.

 **********************************************************************

            Population analysis using the SCF density.

 **********************************************************************

 Orbital symmetries:
       Occupied  (A1G) (A2U) (EU) (EU) (EG) (EG) (A1G) (A2U) (B2U)
                 (B1G) (A1G) (A2U) (B2G) (B1U) (EG) (EG) (EU) (EU)
                 (EG) (EG) (EU) (EU) (A1G) (A2U) (B1G) (B2U) (A1G)
                 (EU) (EU) (EG) (EG) (A2U) (B2G) (B1U) (A1G) (A2G)
                 (A1U) (EU) (EU) (EG) (EG) (A2U)
       Virtual   (B1G) (B2U) (A1G) (EU) (EU) (EG) (EG) (A2U) (EU)
                 (EU) (EG) (EG) (B2G) (B1U) (B1G) (B2U) (A1G) (A2U)
                 (A1G) (EU) (EU) (EG) (EG) (A2U) (EU) (EU) (EG)
                 (EG) (B2G) (B1U) (EU) (EU) (A1G) (EG) (EG) (A2U)
                 (EU) (EU) (B1G) (B2U) (A2G) (A1U) (EG) (EG) (B2G)
                 (B1U) (A1G) (A2U) (EU) (EU) (B1G) (B2U) (EG) (EG)
                 (A2G) (A1U) (A1G) (A2U) (EU) (EU) (EG) (EG) (EU)
                 (EU) (EG) (EG) (A1G) (A2U) (B1G) (B2U)
 The electronic state is 1-A1G.
 Alpha  occ. eigenvalues --   -0.54515  -0.54513  -0.47958  -0.47958  -0.47957
 Alpha  occ. eigenvalues --   -0.47957  -0.43567  -0.43462  -0.42082  -0.42081
 Alpha  occ. eigenvalues --   -0.38480  -0.38401  -0.38017  -0.38017  -0.35855
 Alpha  occ. eigenvalues --   -0.35855  -0.35852  -0.35852  -0.31877  -0.31877
 Alpha  occ. eigenvalues --   -0.31866  -0.31866  -0.31072  -0.30115  -0.27464
 Alpha  occ. eigenvalues --   -0.27462  -0.25697  -0.25690  -0.25690  -0.25663
 Alpha  occ. eigenvalues --   -0.25663  -0.25447  -0.22842  -0.22833  -0.22518
 Alpha  occ. eigenvalues --   -0.22262  -0.22262  -0.21682  -0.21682  -0.21601
 Alpha  occ. eigenvalues --   -0.21601  -0.21329
 Alpha virt. eigenvalues --   -0.20462  -0.20447  -0.19809  -0.18784  -0.18784
 Alpha virt. eigenvalues --   -0.18637  -0.18637  -0.16126  -0.14816  -0.14816
 Alpha virt. eigenvalues --   -0.14741  -0.14741  -0.13424  -0.13424  -0.13232
 Alpha virt. eigenvalues --   -0.13171  -0.12001  -0.11655  -0.08226  -0.08195
 Alpha virt. eigenvalues --   -0.08195  -0.08118  -0.08118  -0.08067  -0.07545
 Alpha virt. eigenvalues --   -0.07545  -0.07378  -0.07378  -0.05012  -0.04991
 Alpha virt. eigenvalues --   -0.04386  -0.04386  -0.03355  -0.02614  -0.02614
 Alpha virt. eigenvalues --   -0.02485  -0.02234  -0.02234  -0.02136  -0.02020
 Alpha virt. eigenvalues --   -0.01690  -0.01685  -0.01648  -0.01648  -0.00869
 Alpha virt. eigenvalues --   -0.00854   0.04187   0.04241   0.05640   0.05640
 Alpha virt. eigenvalues --    0.05788   0.05797   0.06101   0.06101   0.06815
 Alpha virt. eigenvalues --    0.06820   0.06914   0.11367   0.15241   0.15241
 Alpha virt. eigenvalues --    0.15896   0.15896   0.17465   0.17465   0.17821
 Alpha virt. eigenvalues --    0.17821   0.21587   0.21917   0.22457   0.22469
          Condensed to atoms (all electrons):
               1          2          3          4          5          6
     1  Al   3.125198  -0.000841  -0.135328   0.062684   0.062684   0.002135
     2  Al  -0.000841   3.125198  -0.135328   0.062684   0.002135   0.062684
     3  Al  -0.135328  -0.135328   4.355321  -0.017726  -0.017726  -0.017726
     4  Al   0.062684   0.062684  -0.017726   3.448543  -0.138331  -0.138331
     5  Al   0.062684   0.002135  -0.017726  -0.138331   3.448543   0.008867
     6  Al   0.002135   0.062684  -0.017726  -0.138331   0.008867   3.448543
     7  Al  -0.000841  -0.000506  -0.135328   0.002135   0.062684   0.002135
     8  Al   0.002135   0.002135  -0.017726   0.008867  -0.138331  -0.138331
     9  Al  -0.000506  -0.000841  -0.135328   0.002135   0.002135   0.062684
    10  Al  -0.017438  -0.034878  -0.184552  -0.101346  -0.101346  -0.016462
    11  Al  -0.034878  -0.017438  -0.184552  -0.101346  -0.016462  -0.101346
    12  Al  -0.034878   0.008683  -0.184552  -0.016462  -0.101346  -0.016462
    13  Al   0.008683  -0.034878  -0.184552  -0.016462  -0.016462  -0.101346
    14  Al  -0.000638  -0.000638  -0.173118  -0.032948  -0.032948  -0.032948
    15  Al  -0.000001  -0.000001   0.001197   0.000089   0.000089   0.000089
    16  Al   0.000000   0.000000  -0.000007  -0.000002  -0.000002   0.000000
    17  Al   0.000000   0.000000  -0.000007  -0.000002   0.000000  -0.000002
    18  Al   0.000000   0.000000  -0.000007   0.000000  -0.000002   0.000000
    19  Al   0.000000   0.000000  -0.000007   0.000000   0.000000  -0.000002
    20  Al   0.000000   0.000000   0.000000   0.000000   0.000000   0.000000
    21  Al   0.000000   0.000000   0.000000   0.000000   0.000000   0.000000
    22  Al   0.000000   0.000000   0.000000   0.000000   0.000000   0.000000
    23  Al   0.000000   0.000000   0.000000   0.000000   0.000000   0.000000
    24  Al   0.000000   0.000000   0.000000   0.000000   0.000000   0.000000
    25  Al   0.000000   0.000000   0.000000   0.000000   0.000000   0.000000
    26  Al   0.000000   0.000000   0.000000   0.000000   0.000000   0.000000
    27  Al   0.000000   0.000000   0.000000   0.000000   0.000000   0.000000
    28  Al   0.000000   0.000000   0.000000   0.000000   0.000000   0.000000
               7          8          9         10         11         12
     1  Al  -0.000841   0.002135  -0.000506  -0.017438  -0.034878  -0.034878
     2  Al  -0.000506   0.002135  -0.000841  -0.034878  -0.017438   0.008683
     3  Al  -0.135328  -0.017726  -0.135328  -0.184552  -0.184552  -0.184552
     4  Al   0.002135   0.008867   0.002135  -0.101346  -0.101346  -0.016462
     5  Al   0.062684  -0.138331   0.002135  -0.101346  -0.016462  -0.101346
     6  Al   0.002135  -0.138331   0.062684  -0.016462  -0.101346  -0.016462
     7  Al   3.125198   0.062684  -0.000841  -0.034878   0.008683  -0.017438
     8  Al   0.062684   3.448543   0.062684  -0.016462  -0.016462  -0.101346
     9  Al  -0.000841   0.062684   3.125198   0.008683  -0.034878  -0.034878
    10  Al  -0.034878  -0.016462   0.008683   3.304258   0.102493   0.102493
    11  Al   0.008683  -0.016462  -0.034878   0.102493   3.304258  -0.203280
    12  Al  -0.017438  -0.101346  -0.034878   0.102493  -0.203280   3.304258
    13  Al  -0.034878  -0.101346  -0.017438  -0.203280   0.102493   0.102493
    14  Al  -0.000638  -0.032948  -0.000638   0.177712   0.177712   0.177712
    15  Al  -0.000001   0.000089  -0.000001  -0.004154  -0.004154  -0.004154
    16  Al   0.000000   0.000000   0.000000   0.000098   0.000052   0.000052
    17  Al   0.000000   0.000000   0.000000   0.000052   0.000098   0.000032
    18  Al   0.000000  -0.000002   0.000000   0.000052   0.000032   0.000098
    19  Al   0.000000  -0.000002   0.000000   0.000032   0.000052   0.000052
    20  Al   0.000000   0.000000   0.000000   0.000000   0.000000   0.000000
    21  Al   0.000000   0.000000   0.000000  -0.000002  -0.000002   0.000000
    22  Al   0.000000   0.000000   0.000000   0.000000   0.000000   0.000000
    23  Al   0.000000   0.000000   0.000000  -0.000002   0.000000  -0.000002
    24  Al   0.000000   0.000000   0.000000   0.000000  -0.000002   0.000000
    25  Al   0.000000   0.000000   0.000000   0.000000   0.000000  -0.000002
    26  Al   0.000000   0.000000   0.000000  -0.000007  -0.000007  -0.000007
    27  Al   0.000000   0.000000   0.000000   0.000000   0.000000   0.000000
    28  Al   0.000000   0.000000   0.000000   0.000000   0.000000   0.000000
              13         14         15         16         17         18
     1  Al   0.008683  -0.000638  -0.000001   0.000000   0.000000   0.000000
     2  Al  -0.034878  -0.000638  -0.000001   0.000000   0.000000   0.000000
     3  Al  -0.184552  -0.173118   0.001197  -0.000007  -0.000007  -0.000007
     4  Al  -0.016462  -0.032948   0.000089  -0.000002  -0.000002   0.000000
     5  Al  -0.016462  -0.032948   0.000089  -0.000002   0.000000  -0.000002
     6  Al  -0.101346  -0.032948   0.000089   0.000000  -0.000002   0.000000
     7  Al  -0.034878  -0.000638  -0.000001   0.000000   0.000000   0.000000
     8  Al  -0.101346  -0.032948   0.000089   0.000000   0.000000  -0.000002
     9  Al  -0.017438  -0.000638  -0.000001   0.000000   0.000000   0.000000
    10  Al  -0.203280   0.177712  -0.004154   0.000098   0.000052   0.000052
    11  Al   0.102493   0.177712  -0.004154   0.000052   0.000098   0.000032
    12  Al   0.102493   0.177712  -0.004154   0.000052   0.000032   0.000098
    13  Al   3.304258   0.177712  -0.004154   0.000032   0.000052   0.000052
    14  Al   0.177712   2.456644   0.148469  -0.004154  -0.004154  -0.004154
    15  Al  -0.004154   0.148469   2.456644   0.177712   0.177712   0.177712
    16  Al   0.000032  -0.004154   0.177712   3.304258   0.102493   0.102493
    17  Al   0.000052  -0.004154   0.177712   0.102493   3.304258  -0.203280
    18  Al   0.000052  -0.004154   0.177712   0.102493  -0.203280   3.304258
    19  Al   0.000098  -0.004154   0.177712  -0.203280   0.102493   0.102493
    20  Al   0.000000  -0.000001  -0.000638  -0.017438  -0.034878  -0.034878
    21  Al   0.000000   0.000089  -0.032948  -0.101346  -0.101346  -0.016462
    22  Al   0.000000  -0.000001  -0.000638  -0.034878  -0.017438   0.008683
    23  Al   0.000000   0.000089  -0.032948  -0.101346  -0.016462  -0.101346
    24  Al  -0.000002   0.000089  -0.032948  -0.016462  -0.101346  -0.016462
    25  Al  -0.000002   0.000089  -0.032948  -0.016462  -0.016462  -0.101346
    26  Al  -0.000007   0.001197  -0.173118  -0.184552  -0.184552  -0.184552
    27  Al   0.000000  -0.000001  -0.000638  -0.034878   0.008683  -0.017438
    28  Al   0.000000  -0.000001  -0.000638   0.008683  -0.034878  -0.034878
              19         20         21         22         23         24
     1  Al   0.000000   0.000000   0.000000   0.000000   0.000000   0.000000
     2  Al   0.000000   0.000000   0.000000   0.000000   0.000000   0.000000
     3  Al  -0.000007   0.000000   0.000000   0.000000   0.000000   0.000000
     4  Al   0.000000   0.000000   0.000000   0.000000   0.000000   0.000000
     5  Al   0.000000   0.000000   0.000000   0.000000   0.000000   0.000000
     6  Al  -0.000002   0.000000   0.000000   0.000000   0.000000   0.000000
     7  Al   0.000000   0.000000   0.000000   0.000000   0.000000   0.000000
     8  Al  -0.000002   0.000000   0.000000   0.000000   0.000000   0.000000
     9  Al   0.000000   0.000000   0.000000   0.000000   0.000000   0.000000
    10  Al   0.000032   0.000000  -0.000002   0.000000  -0.000002   0.000000
    11  Al   0.000052   0.000000  -0.000002   0.000000   0.000000  -0.000002
    12  Al   0.000052   0.000000   0.000000   0.000000  -0.000002   0.000000
    13  Al   0.000098   0.000000   0.000000   0.000000   0.000000  -0.000002
    14  Al  -0.004154  -0.000001   0.000089  -0.000001   0.000089   0.000089
    15  Al   0.177712  -0.000638  -0.032948  -0.000638  -0.032948  -0.032948
    16  Al  -0.203280  -0.017438  -0.101346  -0.034878  -0.101346  -0.016462
    17  Al   0.102493  -0.034878  -0.101346  -0.017438  -0.016462  -0.101346
    18  Al   0.102493  -0.034878  -0.016462   0.008683  -0.101346  -0.016462
    19  Al   3.304258   0.008683  -0.016462  -0.034878  -0.016462  -0.101346
    20  Al   0.008683   3.125198   0.062684  -0.000841   0.062684   0.002135
    21  Al  -0.016462   0.062684   3.448543   0.062684  -0.138331  -0.138331
    22  Al  -0.034878  -0.000841   0.062684   3.125198   0.002135   0.062684
    23  Al  -0.016462   0.062684  -0.138331   0.002135   3.448543   0.008867
    24  Al  -0.101346   0.002135  -0.138331   0.062684   0.008867   3.448543
    25  Al  -0.101346   0.002135   0.008867   0.002135  -0.138331  -0.138331
    26  Al  -0.184552  -0.135328  -0.017726  -0.135328  -0.017726  -0.017726
    27  Al  -0.034878  -0.000841   0.002135  -0.000506   0.062684   0.002135
    28  Al  -0.017438  -0.000506   0.002135  -0.000841   0.002135   0.062684
              25         26         27         28
     1  Al   0.000000   0.000000   0.000000   0.000000
     2  Al   0.000000   0.000000   0.000000   0.000000
     3  Al   0.000000   0.000000   0.000000   0.000000
     4  Al   0.000000   0.000000   0.000000   0.000000
     5  Al   0.000000   0.000000   0.000000   0.000000
     6  Al   0.000000   0.000000   0.000000   0.000000
     7  Al   0.000000   0.000000   0.000000   0.000000
     8  Al   0.000000   0.000000   0.000000   0.000000
     9  Al   0.000000   0.000000   0.000000   0.000000
    10  Al   0.000000  -0.000007   0.000000   0.000000
    11  Al   0.000000  -0.000007   0.000000   0.000000
    12  Al  -0.000002  -0.000007   0.000000   0.000000
    13  Al  -0.000002  -0.000007   0.000000   0.000000
    14  Al   0.000089   0.001197  -0.000001  -0.000001
    15  Al  -0.032948  -0.173118  -0.000638  -0.000638
    16  Al  -0.016462  -0.184552  -0.034878   0.008683
    17  Al  -0.016462  -0.184552   0.008683  -0.034878
    18  Al  -0.101346  -0.184552  -0.017438  -0.034878
    19  Al  -0.101346  -0.184552  -0.034878  -0.017438
    20  Al   0.002135  -0.135328  -0.000841  -0.000506
    21  Al   0.008867  -0.017726   0.002135   0.002135
    22  Al   0.002135  -0.135328  -0.000506  -0.000841
    23  Al  -0.138331  -0.017726   0.062684   0.002135
    24  Al  -0.138331  -0.017726   0.002135   0.062684
    25  Al   3.448543  -0.017726   0.062684   0.062684
    26  Al  -0.017726   4.355321  -0.135328  -0.135328
    27  Al   0.062684  -0.135328   3.125198  -0.000841
    28  Al   0.062684  -0.135328  -0.000841   3.125198
 Mulliken charges:
               1
     1  Al  -0.038167
     2  Al  -0.038167
     3  Al   0.167052
     4  Al  -0.024178
     5  Al  -0.024178
     6  Al  -0.024178
     7  Al  -0.038167
     8  Al  -0.024178
     9  Al  -0.038167
    10  Al   0.018937
    11  Al   0.018937
    12  Al   0.018937
    13  Al   0.018937
    14  Al   0.006569
    15  Al   0.006569
    16  Al   0.018937
    17  Al   0.018937
    18  Al   0.018937
    19  Al   0.018937
    20  Al  -0.038167
    21  Al  -0.024178
    22  Al  -0.038167
    23  Al  -0.024178
    24  Al  -0.024178
    25  Al  -0.024178
    26  Al   0.167052
    27  Al  -0.038167
    28  Al  -0.038167
 Sum of Mulliken charges =  -0.00002
 Mulliken charges with hydrogens summed into heavy atoms:
               1
     1  Al  -0.038167
     2  Al  -0.038167
     3  Al   0.167052
     4  Al  -0.024178
     5  Al  -0.024178
     6  Al  -0.024178
     7  Al  -0.038167
     8  Al  -0.024178
     9  Al  -0.038167
    10  Al   0.018937
    11  Al   0.018937
    12  Al   0.018937
    13  Al   0.018937
    14  Al   0.006569
    15  Al   0.006569
    16  Al   0.018937
    17  Al   0.018937
    18  Al   0.018937
    19  Al   0.018937
    20  Al  -0.038167
    21  Al  -0.024178
    22  Al  -0.038167
    23  Al  -0.024178
    24  Al  -0.024178
    25  Al  -0.024178
    26  Al   0.167052
    27  Al  -0.038167
    28  Al  -0.038167
 Electronic spatial extent (au):  <R**2>=          11722.9518
 Charge=              0.0000 electrons
 Dipole moment (field-independent basis, Debye):
    X=              0.0000    Y=              0.0000    Z=              0.0000  Tot=              0.0000
 Quadrupole moment (field-independent basis, Debye-Ang):
   XX=           -397.1563   YY=           -397.1563   ZZ=           -448.5685
   XY=              0.0000   XZ=              0.0000   YZ=              0.0000
 Traceless Quadrupole moment (field-independent basis, Debye-Ang):
   XX=             17.1374   YY=             17.1374   ZZ=            -34.2748
   XY=              0.0000   XZ=              0.0000   YZ=              0.0000
 Octapole moment (field-independent basis, Debye-Ang**2):
  XXX=              0.0000  YYY=              0.0000  ZZZ=              0.0000  XYY=              0.0000
  XXY=              0.0000  XXZ=              0.0000  XZZ=              0.0000  YZZ=              0.0000
  YYZ=              0.0000  XYZ=              0.0000
 Hexadecapole moment (field-independent basis, Debye-Ang**3):
 XXXX=         -10688.3892 YYYY=         -10688.3892 ZZZZ=         -72841.6736 XXXY=              0.0000
 XXXZ=              0.0000 YYYX=              0.0000 YYYZ=              0.0000 ZZZX=              0.0000
 ZZZY=              0.0000 XXYY=          -3717.1607 XXZZ=         -13232.8703 YYZZ=         -13232.8703
 XXYZ=              0.0000 YYXZ=              0.0000 ZZXY=              0.0000
 N-N= 3.120036595716D+02 E-N=-7.120861774072D+02  KE= 2.202962879464D+01
 Symmetry AG   KE= 4.117946170137D+00
 Symmetry B1G  KE= 1.608345776044D+00
 Symmetry B2G  KE= 2.702683485642D+00
 Symmetry B3G  KE= 2.702683485642D+00
 Symmetry AU   KE= 1.608671408955D+00
 Symmetry B1U  KE= 3.910383354726D+00
 Symmetry B2U  KE= 2.689457556746D+00
 Symmetry B3U  KE= 2.689457556746D+00
 No NMR shielding tensors so no spin-rotation constants.
 Leave Link  601 at Thu Feb 28 10:10:18 2019, MaxMem=   131072000 cpu:         1.1
 (Enter /home/palacios/gaussian/g09/l9999.exe)
 1\1\GINC-ASUS-WORK\SP\RSVWN\Gen\Al28\PALACIOS\28-Feb-2019\0\\#p lsda/g
 en pseudo=read Scf=(conver=5,dsymm)\\Al9-Al4-Al-Al-Al4-Al9\\0,1\Al,0,-
 4.,0.,-6.\Al,0,0.,4.,-6.\Al,0,0.,0.,-6.\Al,0,-2.,2.,-6.\Al,0,-2.,-2.,-
 6.\Al,0,2.,2.,-6.\Al,0,0.,-4.,-6.\Al,0,2.,-2.,-6.\Al,0,4.,0.,-6.\Al,0,
 -2.,0.,-4.\Al,0,0.,2.,-4.\Al,0,0.,-2.,-4.\Al,0,2.,0.,-4.\Al,0,0.,0.,-2
 .\Al,0,0.,0.,2.\Al,0,-2.,0.,4.\Al,0,0.,2.,4.\Al,0,0.,-2.,4.\Al,0,2.,0.
 ,4.\Al,0,-4.,0.,6.\Al,0,-2.,2.,6.\Al,0,0.,4.,6.\Al,0,-2.,-2.,6.\Al,0,2
 .,2.,6.\Al,0,2.,-2.,6.\Al,0,0.,0.,6.\Al,0,0.,-4.,6.\Al,0,4.,0.,6.\\Ver
 sion=ES64L-G09RevD.01\State=1-A1G\HF=-54.2246119\RMSD=2.331e-06\Dipole
 =0.,0.,0.\Quadrupole=12.7412521,12.7412521,-25.4825042,0.,0.,0.\PG=D04
 H [C4(Al1Al1.Al1Al1),2SGV(Al8),2SGD(Al4)]\\@


 NOTHING RESEMBLES A NEW PHENOMENON AS MUCH AS A MISTAKE.

                               -- ENRICO FERMI (?)
 Job cpu time:       0 days  0 hours 43 minutes 48.5 seconds.
 File lengths (MBytes):  RWF=      7 Int=      0 D2E=      0 Chk=      2 Scr=      1
 Normal termination of Gaussian 09 at Thu Feb 28 10:10:18 2019.
