 Entering Gaussian System, Link 0=g09
 Input=Pt9-Pt4-Pt-Pt-Pt4-Pt9.gjf
 Output=Pt9-Pt4-Pt-Pt-Pt4-Pt9.log
 AtFile(1): Pt9-Pt4-Pt-Pt-Pt4-Pt9.gbslarge
            1-9 20-28
            S      3        1.00
                   0.4024                   -0.9969
                   0.2704                    1.0610
                   0.0612                    0.8117
            P      3        1.00
                   0.6751                   -0.0427
                   0.0966                    0.4789
                   0.0288                    0.6301
            D      4        1.00
                   1.2792                    0.4614
                   0.4890                    0.4587
                   0.1905                    0.2346
                   0.0747                    0.0500
            ****
            10-19
            S 3 1.0
            30.0000000000 0.271482639000
            27.0000000000 -0.422267587740
            14.4083185640 0.443615819950
            S 1 1.0
            5.76260815000 1.000000000000
            S 1 1.0
            1.06835871000 1.000000000000
            S 1 1.0
            0.15368971000 1.000000000000
            P 4 1.0
            15.5000000000 -0.156727186290
            14.0000000000 0.238534129890
            6.11612123390 -0.310413797330
            1.57155863850 0.564735250890
            P 1 1.0
            0.77232013000 1.000000000000
            P 1 1.0
            0.25285881000 1.000000000000
            D 4 1.0
            8.32079376110 0.062945798646
            7.42072265200 -0.090271847072
            1.65704106390 0.168125264160
            0.73943569960 0.250454169700
            D 1 1.0
            1.12524984000 1.000000000000
            D 1 1.0
            0.27562365000 1.000000000000
            ****
            
            10-19
            PT-ECP 5 60
            h potential
            1
            2 1.00000000 0.00000000
            s-h potential
            2
            2 14.60450000 429.64608700
            2 7.21828700 73.15688400
            p-h potential
            4
            2 11.57716200 88.02291700
            2 10.88384300 175.99819600
            2 6.42440300 13.68227400
            2 5.22419800 27.41465100
            d-h potential
            4
            2 7.69961000 43.55785200
            2 7.55080800 65.36910800
            2 3.96116400 7.01859600
            2 3.87277700 11.39173300
            f-h potential
            2
            2 3.37986900 10.71022000
            2 3.32625500 14.27812500
            g-h potential
            2
            2 5.45202000 -11.65174900
            2 5.41258500 -14.37552500
            1-9 20-28
            ECP10CE   4   68
            L=4 COMPONENT
              6
                2    0.912100   -0.974928   -0.033425
                2    2.165400   -9.496993    0.062504
                2    6.065800  -31.972325   -0.228632
                2   15.520800 -115.023093    0.514353
                2   52.946400 -275.538914    0.649005
                1  160.880900  -50.802780    2.082631
            L=0 COMPONENT
              8
                2    1.143300  -80.754021
                2    1.324800  255.402430
                2    1.724000 -314.580845
                2    2.410600  297.734940
                2    3.499700 -197.639338
                2    5.130000  146.508398
                1   12.909200   48.660684
                0   34.226600    4.064912
            L=1 COMPONENT
              8
                2    0.851600  -17.786717   11.386573
                2    0.975100   96.914003  -14.233798
                2    1.266200 -146.014526   -5.864301
                2    1.805100  147.231947   21.055626
                2    2.705000  -89.586180  -19.785536
                2    4.244800   85.018012    9.614229
                1   10.743900   50.108768   -0.541645
                0   31.214600    5.642663    0.076829
            L=2 COMPONENT
              8
                2    0.282000   -0.118513   -0.012992
                2    1.267200  -17.328950    0.606279
                2    1.569200   49.303392   -1.314369
                2    2.301900 -115.680268   -0.021552
                2    3.293600  226.664570    7.154425
                2    4.609100 -154.830769   -9.172213
                1    7.736500   59.639100    0.461982
                0   36.100000    6.811202   -0.065185
            L=3 COMPONENT
              8
                2    0.321300  -28.150095    0.083262
                2    0.333800   31.239727   -0.085665
                2    1.391200   47.821970   -1.405815
                2    1.497800  -29.597185    1.292349
                2    3.370400   68.588371   -8.962695
                2    3.546800  -27.416642    8.539591
                1    8.283500   44.576737    0.038234
                0   23.964400    4.994919   -0.000135
 Initial command:
 /home/palacios/ANT/Gaussian/g09.D01.ifx/g09/l1.exe "/home/palacios/scratch/Gau-3901153.inp" -scrdir="/home/palacios/scratch/"
 Entering Link 1 = /home/palacios/ANT/Gaussian/g09.D01.ifx/g09/l1.exe PID=   3901154.
  
 Copyright (c) 1988,1990,1992,1993,1995,1998,2003,2009,2013,
            Gaussian, Inc.  All Rights Reserved.
  
 This is part of the Gaussian(R) 09 program.  It is based on
 the Gaussian(R) 03 system (copyright 2003, Gaussian, Inc.),
 the Gaussian(R) 98 system (copyright 1998, Gaussian, Inc.),
 the Gaussian(R) 94 system (copyright 1995, Gaussian, Inc.),
 the Gaussian 92(TM) system (copyright 1992, Gaussian, Inc.),
 the Gaussian 90(TM) system (copyright 1990, Gaussian, Inc.),
 the Gaussian 88(TM) system (copyright 1988, Gaussian, Inc.),
 the Gaussian 86(TM) system (copyright 1986, Carnegie Mellon
 University), and the Gaussian 82(TM) system (copyright 1983,
 Carnegie Mellon University). Gaussian is a federally registered
 trademark of Gaussian, Inc.
  
 This software contains proprietary and confidential information,
 including trade secrets, belonging to Gaussian, Inc.
  
 This software is provided under written license and may be
 used, copied, transmitted, or stored only in accord with that
 written license.
  
 The following legend is applicable only to US Government
 contracts under FAR:
  
                    RESTRICTED RIGHTS LEGEND
  
 Use, reproduction and disclosure by the US Government is
 subject to restrictions as set forth in subparagraphs (a)
 and (c) of the Commercial Computer Software - Restricted
 Rights clause in FAR 52.227-19.
  
 Gaussian, Inc.
 340 Quinnipiac St., Bldg. 40, Wallingford CT 06492
  
  
 ---------------------------------------------------------------
 Warning -- This program may not be used in any manner that
 competes with the business of Gaussian, Inc. or will provide
 assistance to any competitor of Gaussian, Inc.  The licensee
 of this program is prohibited from giving any competitor of
 Gaussian, Inc. access to this program.  By using this program,
 the user acknowledges that Gaussian, Inc. is engaged in the
 business of creating and licensing software in the field of
 computational chemistry and represents and warrants to the
 licensee that it is not a competitor of Gaussian, Inc. and that
 it will not use this program in any manner prohibited above.
 ---------------------------------------------------------------
  

 Cite this work as:
 Gaussian 09, Revision D.01,
 M. J. Frisch, G. W. Trucks, H. B. Schlegel, G. E. Scuseria, 
 M. A. Robb, J. R. Cheeseman, G. Scalmani, V. Barone, B. Mennucci, 
 G. A. Petersson, H. Nakatsuji, M. Caricato, X. Li, H. P. Hratchian, 
 A. F. Izmaylov, J. Bloino, G. Zheng, J. L. Sonnenberg, M. Hada, 
 M. Ehara, K. Toyota, R. Fukuda, J. Hasegawa, M. Ishida, T. Nakajima, 
 Y. Honda, O. Kitao, H. Nakai, T. Vreven, J. A. Montgomery, Jr., 
 J. E. Peralta, F. Ogliaro, M. Bearpark, J. J. Heyd, E. Brothers, 
 K. N. Kudin, V. N. Staroverov, T. Keith, R. Kobayashi, J. Normand, 
 K. Raghavachari, A. Rendell, J. C. Burant, S. S. Iyengar, J. Tomasi, 
 M. Cossi, N. Rega, J. M. Millam, M. Klene, J. E. Knox, J. B. Cross, 
 V. Bakken, C. Adamo, J. Jaramillo, R. Gomperts, R. E. Stratmann, 
 O. Yazyev, A. J. Austin, R. Cammi, C. Pomelli, J. W. Ochterski, 
 R. L. Martin, K. Morokuma, V. G. Zakrzewski, G. A. Voth, 
 P. Salvador, J. J. Dannenberg, S. Dapprich, A. D. Daniels, 
 O. Farkas, J. B. Foresman, J. V. Ortiz, J. Cioslowski, 
 and D. J. Fox, Gaussian, Inc., Wallingford CT, 2013.
 
 ******************************************
 Gaussian 09:  ES64L-G09RevD.01 24-Apr-2013
                10-Apr-2024 
 ******************************************
 %Subst L502 ../../bin
 %Subst L101 ../../bin
 %nproc=8
 Will use up to    8 processors via shared memory.
 ------------------------------------------------------------
 #p LSDA/gen pseudo=read scf=(conver=5,dsymm,maxcyc=300) test
 ------------------------------------------------------------
 1/38=1/1;
 2/12=2,17=6,18=5,40=1/2;
 3/5=7,11=2,16=1,17=8,25=1,30=1,74=205/1,2,3;
 4//1;
 5/5=2,6=5,7=300,17=200,38=5/2;
 6/7=2,8=2,9=2,10=2,28=1/1;
 99/5=1,9=1/99;
 Leave Link    1 at Wed Apr 10 13:34:48 2024, MaxMem=           0 cpu:         0.0
 (Enter ../../bin/l101.exe)
 ---------------------
 Pt9-Pt4-Pt-Pt-Pt4-Pt9
 ---------------------
 Symbolic Z-matrix:
 Charge =  0 Multiplicity = 1
 78                   -1.96      1.96      9.46 
 78                   -3.92      0.        9.46 
 78                    1.96      1.96      9.46 
 78                    0.        0.        9.46 
 78                   -1.96     -1.96      9.46 
 78                    0.        3.92      9.46 
 78                    3.92      0.        9.46 
 78                    1.96     -1.96      9.46 
 78                    0.       -3.92      9.46 
 78                    0.        1.96      7.5 
 78                   -1.96      0.        7.5 
 78                    1.96      0.        7.5 
 78                    0.       -1.96      7.5 
 78                    0.        0.1       5.54 
 78                    0.        0.        3.08 
 78                    0.        1.96      1.12 
 78                   -1.96      0.        1.12 
 78                    1.96      0.        1.12 
 78                    0.       -1.96      1.12 
 78                    0.        3.92     -0.84 
 78                   -1.96      1.96     -0.84 
 78                   -3.92      0.       -0.84 
 78                    1.96      1.96     -0.84 
 78                    0.       -3.92     -0.84 
 78                    0.        0.       -0.84 
 78                   -1.96     -1.96     -0.84 
 78                    3.92      0.       -0.84 
 78                    1.96     -1.96     -0.84 
 
 NAtoms=     28 NQM=       28 NQMF=       0 NMMI=      0 NMMIF=      0
                NMic=       0 NMicF=      0.
                    Isotopes and Nuclear Properties:
 (Nuclear quadrupole moments (NQMom) in fm**2, nuclear magnetic moments (NMagM)
  in nuclear magnetons)

  Atom         1           2           3           4           5           6           7           8           9          10
 IAtWgt=         195         195         195         195         195         195         195         195         195         195
 AtmWgt= 194.9648000 194.9648000 194.9648000 194.9648000 194.9648000 194.9648000 194.9648000 194.9648000 194.9648000 194.9648000
 NucSpn=           1           1           1           1           1           1           1           1           1           1
 AtZEff=   0.0000000   0.0000000   0.0000000   0.0000000   0.0000000   0.0000000   0.0000000   0.0000000   0.0000000   0.0000000
 NQMom=    0.0000000   0.0000000   0.0000000   0.0000000   0.0000000   0.0000000   0.0000000   0.0000000   0.0000000   0.0000000
 NMagM=    0.6095000   0.6095000   0.6095000   0.6095000   0.6095000   0.6095000   0.6095000   0.6095000   0.6095000   0.6095000
 AtZNuc=  78.0000000  78.0000000  78.0000000  78.0000000  78.0000000  78.0000000  78.0000000  78.0000000  78.0000000  78.0000000

  Atom        11          12          13          14          15          16          17          18          19          20
 IAtWgt=         195         195         195         195         195         195         195         195         195         195
 AtmWgt= 194.9648000 194.9648000 194.9648000 194.9648000 194.9648000 194.9648000 194.9648000 194.9648000 194.9648000 194.9648000
 NucSpn=           1           1           1           1           1           1           1           1           1           1
 AtZEff=   0.0000000   0.0000000   0.0000000   0.0000000   0.0000000   0.0000000   0.0000000   0.0000000   0.0000000   0.0000000
 NQMom=    0.0000000   0.0000000   0.0000000   0.0000000   0.0000000   0.0000000   0.0000000   0.0000000   0.0000000   0.0000000
 NMagM=    0.6095000   0.6095000   0.6095000   0.6095000   0.6095000   0.6095000   0.6095000   0.6095000   0.6095000   0.6095000
 AtZNuc=  78.0000000  78.0000000  78.0000000  78.0000000  78.0000000  78.0000000  78.0000000  78.0000000  78.0000000  78.0000000

  Atom        21          22          23          24          25          26          27          28
 IAtWgt=         195         195         195         195         195         195         195         195
 AtmWgt= 194.9648000 194.9648000 194.9648000 194.9648000 194.9648000 194.9648000 194.9648000 194.9648000
 NucSpn=           1           1           1           1           1           1           1           1
 AtZEff=   0.0000000   0.0000000   0.0000000   0.0000000   0.0000000   0.0000000   0.0000000   0.0000000
 NQMom=    0.0000000   0.0000000   0.0000000   0.0000000   0.0000000   0.0000000   0.0000000   0.0000000
 NMagM=    0.6095000   0.6095000   0.6095000   0.6095000   0.6095000   0.6095000   0.6095000   0.6095000
 AtZNuc=  78.0000000  78.0000000  78.0000000  78.0000000  78.0000000  78.0000000  78.0000000  78.0000000
 Leave Link  101 at Wed Apr 10 13:34:48 2024, MaxMem=    33554432 cpu:         0.0
 (Enter /home/palacios/ANT/Gaussian/g09.D01.ifx/g09/l202.exe)
                          Input orientation:                          
 ---------------------------------------------------------------------
 Center     Atomic      Atomic             Coordinates (Angstroms)
 Number     Number       Type             X           Y           Z
 ---------------------------------------------------------------------
      1         78           0       -1.960000    1.960000    9.460000
      2         78           0       -3.920000    0.000000    9.460000
      3         78           0        1.960000    1.960000    9.460000
      4         78           0        0.000000    0.000000    9.460000
      5         78           0       -1.960000   -1.960000    9.460000
      6         78           0        0.000000    3.920000    9.460000
      7         78           0        3.920000    0.000000    9.460000
      8         78           0        1.960000   -1.960000    9.460000
      9         78           0        0.000000   -3.920000    9.460000
     10         78           0        0.000000    1.960000    7.500000
     11         78           0       -1.960000    0.000000    7.500000
     12         78           0        1.960000    0.000000    7.500000
     13         78           0        0.000000   -1.960000    7.500000
     14         78           0        0.000000    0.100000    5.540000
     15         78           0        0.000000    0.000000    3.080000
     16         78           0        0.000000    1.960000    1.120000
     17         78           0       -1.960000    0.000000    1.120000
     18         78           0        1.960000    0.000000    1.120000
     19         78           0        0.000000   -1.960000    1.120000
     20         78           0        0.000000    3.920000   -0.840000
     21         78           0       -1.960000    1.960000   -0.840000
     22         78           0       -3.920000    0.000000   -0.840000
     23         78           0        1.960000    1.960000   -0.840000
     24         78           0        0.000000   -3.920000   -0.840000
     25         78           0        0.000000    0.000000   -0.840000
     26         78           0       -1.960000   -1.960000   -0.840000
     27         78           0        3.920000    0.000000   -0.840000
     28         78           0        1.960000   -1.960000   -0.840000
 ---------------------------------------------------------------------
                    Distance matrix (angstroms):
                    1          2          3          4          5
     1  Pt   0.000000
     2  Pt   2.771859   0.000000
     3  Pt   3.920000   6.198064   0.000000
     4  Pt   2.771859   3.920000   2.771859   0.000000
     5  Pt   3.920000   2.771859   5.543717   2.771859   0.000000
     6  Pt   2.771859   5.543717   2.771859   3.920000   6.198064
     7  Pt   6.198064   7.840000   2.771859   3.920000   6.198064
     8  Pt   5.543717   6.198064   3.920000   2.771859   3.920000
     9  Pt   6.198064   5.543717   6.198064   3.920000   2.771859
    10  Pt   2.771859   4.801000   2.771859   2.771859   4.801000
    11  Pt   2.771859   2.771859   4.801000   2.771859   2.771859
    12  Pt   4.801000   6.198064   2.771859   2.771859   4.801000
    13  Pt   4.801000   4.801000   4.801000   2.771859   2.771859
    14  Pt   4.761050   5.544619   4.761050   3.921275   4.842685
    15  Pt   6.956120   7.488044   6.956120   6.380000   6.956120
    16  Pt   8.567217   9.421444   8.567217   8.567217   9.421444
    17  Pt   8.567217   8.567217   9.421444   8.567217   8.567217
    18  Pt   9.421444  10.204411   8.567217   8.567217   9.421444
    19  Pt   9.421444   9.421444   9.421444   8.567217   8.567217
    20  Pt  10.666452  11.697128  10.666452  11.020726  12.021065
    21  Pt  10.300000  10.666452  11.020726  10.666452  11.020726
    22  Pt  10.666452  10.300000  12.021065  11.020726  10.666452
    23  Pt  11.020726  12.021065  10.300000  10.666452  11.697128
    24  Pt  12.021065  11.697128  12.021065  11.020726  10.666452
    25  Pt  10.666452  11.020726  10.666452  10.300000  10.666452
    26  Pt  11.020726  10.666452  11.697128  10.666452  10.300000
    27  Pt  12.021065  12.944327  10.666452  11.020726  12.021065
    28  Pt  11.697128  12.021065  11.020726  10.666452  11.020726
                    6          7          8          9         10
     6  Pt   0.000000
     7  Pt   5.543717   0.000000
     8  Pt   6.198064   2.771859   0.000000
     9  Pt   7.840000   5.543717   2.771859   0.000000
    10  Pt   2.771859   4.801000   4.801000   6.198064   0.000000
    11  Pt   4.801000   6.198064   4.801000   4.801000   2.771859
    12  Pt   4.801000   2.771859   2.771859   4.801000   2.771859
    13  Pt   6.198064   4.801000   2.771859   2.771859   3.920000
    14  Pt   5.473463   5.544619   4.842685   5.614873   2.702073
    15  Pt   7.488044   7.488044   6.956120   7.488044   4.835080
    16  Pt   8.567217   9.421444   9.421444  10.204411   6.380000
    17  Pt   9.421444  10.204411   9.421444   9.421444   6.956120
    18  Pt   9.421444   8.567217   8.567217   9.421444   6.956120
    19  Pt  10.204411   9.421444   8.567217   8.567217   7.488044
    20  Pt  10.300000  11.697128  12.021065  12.944327   8.567217
    21  Pt  10.666452  12.021065  11.697128  12.021065   8.567217
    22  Pt  11.697128  12.944327  12.021065  11.697128   9.421444
    23  Pt  10.666452  10.666452  11.020726  12.021065   8.567217
    24  Pt  12.944327  11.697128  10.666452  10.300000  10.204411
    25  Pt  11.020726  11.020726  10.666452  11.020726   8.567217
    26  Pt  12.021065  12.021065  11.020726  10.666452   9.421444
    27  Pt  11.697128  10.300000  10.666452  11.697128   9.421444
    28  Pt  12.021065  10.666452  10.300000  10.666452   9.421444
                   11         12         13         14         15
    11  Pt   0.000000
    12  Pt   3.920000   0.000000
    13  Pt   2.771859   2.771859   0.000000
    14  Pt   2.773662   2.773662   2.843449   0.000000
    15  Pt   4.835080   4.835080   4.835080   2.462032   0.000000
    16  Pt   6.956120   6.956120   7.488044   4.795414   2.771859
    17  Pt   6.380000   7.488044   6.956120   4.836114   2.771859
    18  Pt   7.488044   6.380000   6.956120   4.836114   2.771859
    19  Pt   6.956120   6.956120   6.380000   4.876474   2.771859
    20  Pt   9.421444   9.421444  10.204411   7.436182   5.543717
    21  Pt   8.567217   9.421444   9.421444   6.928607   4.801000
    22  Pt   8.567217  10.204411   9.421444   7.488712   5.543717
    23  Pt   9.421444   8.567217   9.421444   6.928607   4.801000
    24  Pt   9.421444   9.421444   8.567217   7.540875   5.543717
    25  Pt   8.567217   8.567217   8.567217   6.380784   3.920000
    26  Pt   8.567217   9.421444   8.567217   6.984955   4.801000
    27  Pt  10.204411   8.567217   9.421444   7.488712   5.543717
    28  Pt   9.421444   8.567217   8.567217   6.984955   4.801000
                   16         17         18         19         20
    16  Pt   0.000000
    17  Pt   2.771859   0.000000
    18  Pt   2.771859   3.920000   0.000000
    19  Pt   3.920000   2.771859   2.771859   0.000000
    20  Pt   2.771859   4.801000   4.801000   6.198064   0.000000
    21  Pt   2.771859   2.771859   4.801000   4.801000   2.771859
    22  Pt   4.801000   2.771859   6.198064   4.801000   5.543717
    23  Pt   2.771859   4.801000   2.771859   4.801000   2.771859
    24  Pt   6.198064   4.801000   4.801000   2.771859   7.840000
    25  Pt   2.771859   2.771859   2.771859   2.771859   3.920000
    26  Pt   4.801000   2.771859   4.801000   2.771859   6.198064
    27  Pt   4.801000   6.198064   2.771859   4.801000   5.543717
    28  Pt   4.801000   4.801000   2.771859   2.771859   6.198064
                   21         22         23         24         25
    21  Pt   0.000000
    22  Pt   2.771859   0.000000
    23  Pt   3.920000   6.198064   0.000000
    24  Pt   6.198064   5.543717   6.198064   0.000000
    25  Pt   2.771859   3.920000   2.771859   3.920000   0.000000
    26  Pt   3.920000   2.771859   5.543717   2.771859   2.771859
    27  Pt   6.198064   7.840000   2.771859   5.543717   3.920000
    28  Pt   5.543717   6.198064   3.920000   2.771859   2.771859
                   26         27         28
    26  Pt   0.000000
    27  Pt   6.198064   0.000000
    28  Pt   3.920000   2.771859   0.000000
 Stoichiometry    Pt28
 Framework group  CS[SG(Pt12),X(Pt16)]
 Deg. of freedom    45
 Full point group                 CS      NOp   2
 Largest Abelian subgroup         CS      NOp   2
 Largest concise Abelian subgroup CS      NOp   2
                         Standard orientation:                         
 ---------------------------------------------------------------------
 Center     Atomic      Atomic             Coordinates (Angstroms)
 Number     Number       Type             X           Y           Z
 ---------------------------------------------------------------------
      1         78           0       -1.956429    5.150000    1.960000
      2         78           0        0.003571    5.150000    3.920000
      3         78           0       -1.956429    5.150000   -1.960000
      4         78           0        0.003571    5.150000    0.000000
      5         78           0        1.963571    5.150000    1.960000
      6         78           0       -3.916429    5.150000    0.000000
      7         78           0        0.003571    5.150000   -3.920000
      8         78           0        1.963571    5.150000   -1.960000
      9         78           0        3.923571    5.150000    0.000000
     10         78           0       -1.956429    3.190000    0.000000
     11         78           0        0.003571    3.190000    1.960000
     12         78           0        0.003571    3.190000   -1.960000
     13         78           0        1.963571    3.190000    0.000000
     14         78           0       -0.096429    1.230000    0.000000
     15         78           0        0.003571   -1.230000    0.000000
     16         78           0       -1.956429   -3.190000    0.000000
     17         78           0        0.003571   -3.190000    1.960000
     18         78           0        0.003571   -3.190000   -1.960000
     19         78           0        1.963571   -3.190000    0.000000
     20         78           0       -3.916429   -5.150000    0.000000
     21         78           0       -1.956429   -5.150000    1.960000
     22         78           0        0.003571   -5.150000    3.920000
     23         78           0       -1.956429   -5.150000   -1.960000
     24         78           0        3.923571   -5.150000    0.000000
     25         78           0        0.003571   -5.150000    0.000000
     26         78           0        1.963571   -5.150000    1.960000
     27         78           0        0.003571   -5.150000   -3.920000
     28         78           0        1.963571   -5.150000   -1.960000
 ---------------------------------------------------------------------
 Rotational constants (GHZ):      0.0120487      0.0038723      0.0038723
 Leave Link  202 at Wed Apr 10 13:34:48 2024, MaxMem=    33554432 cpu:         0.0
 (Enter /home/palacios/ANT/Gaussian/g09.D01.ifx/g09/l301.exe)
 General basis read from cards:  (5D, 7F)
 Centers:       1      2      3      4      5      6      7      8      9     20
 Centers:      21     22     23     24     25     26     27     28
 S 3 1.00
     Exponent=  4.0240000000D-01 Coefficients= -9.9690000000D-01
     Exponent=  2.7040000000D-01 Coefficients=  1.0610000000D+00
     Exponent=  6.1200000000D-02 Coefficients=  8.1170000000D-01
 P 3 1.00
     Exponent=  6.7510000000D-01 Coefficients= -4.2700000000D-02
     Exponent=  9.6600000000D-02 Coefficients=  4.7890000000D-01
     Exponent=  2.8800000000D-02 Coefficients=  6.3010000000D-01
 D 4 1.00
     Exponent=  1.2792000000D+00 Coefficients=  4.6140000000D-01
     Exponent=  4.8900000000D-01 Coefficients=  4.5870000000D-01
     Exponent=  1.9050000000D-01 Coefficients=  2.3460000000D-01
     Exponent=  7.4700000000D-02 Coefficients=  5.0000000000D-02
 ****
 Centers:      10     11     12     13     14     15     16     17     18     19
 S 3 1.0
     Exponent=  3.0000000000D+01 Coefficients=  2.7148263900D-01
     Exponent=  2.7000000000D+01 Coefficients= -4.2226758774D-01
     Exponent=  1.4408318564D+01 Coefficients=  4.4361581995D-01
 S 1 1.0
     Exponent=  5.7626081500D+00 Coefficients=  1.0000000000D+00
 S 1 1.0
     Exponent=  1.0683587100D+00 Coefficients=  1.0000000000D+00
 S 1 1.0
     Exponent=  1.5368971000D-01 Coefficients=  1.0000000000D+00
 P 4 1.0
     Exponent=  1.5500000000D+01 Coefficients= -1.5672718629D-01
     Exponent=  1.4000000000D+01 Coefficients=  2.3853412989D-01
     Exponent=  6.1161212339D+00 Coefficients= -3.1041379733D-01
     Exponent=  1.5715586385D+00 Coefficients=  5.6473525089D-01
 P 1 1.0
     Exponent=  7.7232013000D-01 Coefficients=  1.0000000000D+00
 P 1 1.0
     Exponent=  2.5285881000D-01 Coefficients=  1.0000000000D+00
 D 4 1.0
     Exponent=  8.3207937611D+00 Coefficients=  6.2945798646D-02
     Exponent=  7.4207226520D+00 Coefficients= -9.0271847072D-02
     Exponent=  1.6570410639D+00 Coefficients=  1.6812526416D-01
     Exponent=  7.3943569960D-01 Coefficients=  2.5045416970D-01
 D 1 1.0
     Exponent=  1.1252498400D+00 Coefficients=  1.0000000000D+00
 D 1 1.0
     Exponent=  2.7562365000D-01 Coefficients=  1.0000000000D+00
 ****
 ======================================================================================================
                                       Pseudopotential Parameters
 ======================================================================================================
  Center     Atomic      Valence      Angular      Power
  Number     Number     Electrons     Momentum     of R      Exponent        Coefficient   SO-Coeffient
 ======================================================================================================
    1         78           10
                                      G and up 
                                                     2        0.9121000       -0.97492800   -0.03342500
                                                     2        2.1654000       -9.49699300    0.06250400
                                                     2        6.0658000      -31.97232500   -0.22863200
                                                     2       15.5208000     -115.02309300    0.51435300
                                                     2       52.9464000     -275.53891400    0.64900500
                                                     1      160.8809000      -50.80278000    2.08263100
                                      S - G
                                                     2        1.1433000      -80.75402100    0.00000000
                                                     2        1.3248000      255.40243000    0.00000000
                                                     2        1.7240000     -314.58084500    0.00000000
                                                     2        2.4106000      297.73494000    0.00000000
                                                     2        3.4997000     -197.63933800    0.00000000
                                                     2        5.1300000      146.50839800    0.00000000
                                                     1       12.9092000       48.66068400    0.00000000
                                                     0       34.2266000        4.06491200    0.00000000
                                      P - G
                                                     2        0.8516000      -17.78671700   11.38657300
                                                     2        0.9751000       96.91400300  -14.23379800
                                                     2        1.2662000     -146.01452600   -5.86430100
                                                     2        1.8051000      147.23194700   21.05562600
                                                     2        2.7050000      -89.58618000  -19.78553600
                                                     2        4.2448000       85.01801200    9.61422900
                                                     1       10.7439000       50.10876800   -0.54164500
                                                     0       31.2146000        5.64266300    0.07682900
                                      D - G
                                                     2        0.2820000       -0.11851300   -0.01299200
                                                     2        1.2672000      -17.32895000    0.60627900
                                                     2        1.5692000       49.30339200   -1.31436900
                                                     2        2.3019000     -115.68026800   -0.02155200
                                                     2        3.2936000      226.66457000    7.15442500
                                                     2        4.6091000     -154.83076900   -9.17221300
                                                     1        7.7365000       59.63910000    0.46198200
                                                     0       36.1000000        6.81120200   -0.06518500
                                      F - G
                                                     2        0.3213000      -28.15009500    0.08326200
                                                     2        0.3338000       31.23972700   -0.08566500
                                                     2        1.3912000       47.82197000   -1.40581500
                                                     2        1.4978000      -29.59718500    1.29234900
                                                     2        3.3704000       68.58837100   -8.96269500
                                                     2        3.5468000      -27.41664200    8.53959100
                                                     1        8.2835000       44.57673700    0.03823400
                                                     0       23.9644000        4.99491900   -0.00013500
    2         78           10
                                      G and up 
                                                     2        0.9121000       -0.97492800   -0.03342500
                                                     2        2.1654000       -9.49699300    0.06250400
                                                     2        6.0658000      -31.97232500   -0.22863200
                                                     2       15.5208000     -115.02309300    0.51435300
                                                     2       52.9464000     -275.53891400    0.64900500
                                                     1      160.8809000      -50.80278000    2.08263100
                                      S - G
                                                     2        1.1433000      -80.75402100    0.00000000
                                                     2        1.3248000      255.40243000    0.00000000
                                                     2        1.7240000     -314.58084500    0.00000000
                                                     2        2.4106000      297.73494000    0.00000000
                                                     2        3.4997000     -197.63933800    0.00000000
                                                     2        5.1300000      146.50839800    0.00000000
                                                     1       12.9092000       48.66068400    0.00000000
                                                     0       34.2266000        4.06491200    0.00000000
                                      P - G
                                                     2        0.8516000      -17.78671700   11.38657300
                                                     2        0.9751000       96.91400300  -14.23379800
                                                     2        1.2662000     -146.01452600   -5.86430100
                                                     2        1.8051000      147.23194700   21.05562600
                                                     2        2.7050000      -89.58618000  -19.78553600
                                                     2        4.2448000       85.01801200    9.61422900
                                                     1       10.7439000       50.10876800   -0.54164500
                                                     0       31.2146000        5.64266300    0.07682900
                                      D - G
                                                     2        0.2820000       -0.11851300   -0.01299200
                                                     2        1.2672000      -17.32895000    0.60627900
                                                     2        1.5692000       49.30339200   -1.31436900
                                                     2        2.3019000     -115.68026800   -0.02155200
                                                     2        3.2936000      226.66457000    7.15442500
                                                     2        4.6091000     -154.83076900   -9.17221300
                                                     1        7.7365000       59.63910000    0.46198200
                                                     0       36.1000000        6.81120200   -0.06518500
                                      F - G
                                                     2        0.3213000      -28.15009500    0.08326200
                                                     2        0.3338000       31.23972700   -0.08566500
                                                     2        1.3912000       47.82197000   -1.40581500
                                                     2        1.4978000      -29.59718500    1.29234900
                                                     2        3.3704000       68.58837100   -8.96269500
                                                     2        3.5468000      -27.41664200    8.53959100
                                                     1        8.2835000       44.57673700    0.03823400
                                                     0       23.9644000        4.99491900   -0.00013500
    3         78           10
                                      G and up 
                                                     2        0.9121000       -0.97492800   -0.03342500
                                                     2        2.1654000       -9.49699300    0.06250400
                                                     2        6.0658000      -31.97232500   -0.22863200
                                                     2       15.5208000     -115.02309300    0.51435300
                                                     2       52.9464000     -275.53891400    0.64900500
                                                     1      160.8809000      -50.80278000    2.08263100
                                      S - G
                                                     2        1.1433000      -80.75402100    0.00000000
                                                     2        1.3248000      255.40243000    0.00000000
                                                     2        1.7240000     -314.58084500    0.00000000
                                                     2        2.4106000      297.73494000    0.00000000
                                                     2        3.4997000     -197.63933800    0.00000000
                                                     2        5.1300000      146.50839800    0.00000000
                                                     1       12.9092000       48.66068400    0.00000000
                                                     0       34.2266000        4.06491200    0.00000000
                                      P - G
                                                     2        0.8516000      -17.78671700   11.38657300
                                                     2        0.9751000       96.91400300  -14.23379800
                                                     2        1.2662000     -146.01452600   -5.86430100
                                                     2        1.8051000      147.23194700   21.05562600
                                                     2        2.7050000      -89.58618000  -19.78553600
                                                     2        4.2448000       85.01801200    9.61422900
                                                     1       10.7439000       50.10876800   -0.54164500
                                                     0       31.2146000        5.64266300    0.07682900
                                      D - G
                                                     2        0.2820000       -0.11851300   -0.01299200
                                                     2        1.2672000      -17.32895000    0.60627900
                                                     2        1.5692000       49.30339200   -1.31436900
                                                     2        2.3019000     -115.68026800   -0.02155200
                                                     2        3.2936000      226.66457000    7.15442500
                                                     2        4.6091000     -154.83076900   -9.17221300
                                                     1        7.7365000       59.63910000    0.46198200
                                                     0       36.1000000        6.81120200   -0.06518500
                                      F - G
                                                     2        0.3213000      -28.15009500    0.08326200
                                                     2        0.3338000       31.23972700   -0.08566500
                                                     2        1.3912000       47.82197000   -1.40581500
                                                     2        1.4978000      -29.59718500    1.29234900
                                                     2        3.3704000       68.58837100   -8.96269500
                                                     2        3.5468000      -27.41664200    8.53959100
                                                     1        8.2835000       44.57673700    0.03823400
                                                     0       23.9644000        4.99491900   -0.00013500
    4         78           10
                                      G and up 
                                                     2        0.9121000       -0.97492800   -0.03342500
                                                     2        2.1654000       -9.49699300    0.06250400
                                                     2        6.0658000      -31.97232500   -0.22863200
                                                     2       15.5208000     -115.02309300    0.51435300
                                                     2       52.9464000     -275.53891400    0.64900500
                                                     1      160.8809000      -50.80278000    2.08263100
                                      S - G
                                                     2        1.1433000      -80.75402100    0.00000000
                                                     2        1.3248000      255.40243000    0.00000000
                                                     2        1.7240000     -314.58084500    0.00000000
                                                     2        2.4106000      297.73494000    0.00000000
                                                     2        3.4997000     -197.63933800    0.00000000
                                                     2        5.1300000      146.50839800    0.00000000
                                                     1       12.9092000       48.66068400    0.00000000
                                                     0       34.2266000        4.06491200    0.00000000
                                      P - G
                                                     2        0.8516000      -17.78671700   11.38657300
                                                     2        0.9751000       96.91400300  -14.23379800
                                                     2        1.2662000     -146.01452600   -5.86430100
                                                     2        1.8051000      147.23194700   21.05562600
                                                     2        2.7050000      -89.58618000  -19.78553600
                                                     2        4.2448000       85.01801200    9.61422900
                                                     1       10.7439000       50.10876800   -0.54164500
                                                     0       31.2146000        5.64266300    0.07682900
                                      D - G
                                                     2        0.2820000       -0.11851300   -0.01299200
                                                     2        1.2672000      -17.32895000    0.60627900
                                                     2        1.5692000       49.30339200   -1.31436900
                                                     2        2.3019000     -115.68026800   -0.02155200
                                                     2        3.2936000      226.66457000    7.15442500
                                                     2        4.6091000     -154.83076900   -9.17221300
                                                     1        7.7365000       59.63910000    0.46198200
                                                     0       36.1000000        6.81120200   -0.06518500
                                      F - G
                                                     2        0.3213000      -28.15009500    0.08326200
                                                     2        0.3338000       31.23972700   -0.08566500
                                                     2        1.3912000       47.82197000   -1.40581500
                                                     2        1.4978000      -29.59718500    1.29234900
                                                     2        3.3704000       68.58837100   -8.96269500
                                                     2        3.5468000      -27.41664200    8.53959100
                                                     1        8.2835000       44.57673700    0.03823400
                                                     0       23.9644000        4.99491900   -0.00013500
    5         78           10
                                      G and up 
                                                     2        0.9121000       -0.97492800   -0.03342500
                                                     2        2.1654000       -9.49699300    0.06250400
                                                     2        6.0658000      -31.97232500   -0.22863200
                                                     2       15.5208000     -115.02309300    0.51435300
                                                     2       52.9464000     -275.53891400    0.64900500
                                                     1      160.8809000      -50.80278000    2.08263100
                                      S - G
                                                     2        1.1433000      -80.75402100    0.00000000
                                                     2        1.3248000      255.40243000    0.00000000
                                                     2        1.7240000     -314.58084500    0.00000000
                                                     2        2.4106000      297.73494000    0.00000000
                                                     2        3.4997000     -197.63933800    0.00000000
                                                     2        5.1300000      146.50839800    0.00000000
                                                     1       12.9092000       48.66068400    0.00000000
                                                     0       34.2266000        4.06491200    0.00000000
                                      P - G
                                                     2        0.8516000      -17.78671700   11.38657300
                                                     2        0.9751000       96.91400300  -14.23379800
                                                     2        1.2662000     -146.01452600   -5.86430100
                                                     2        1.8051000      147.23194700   21.05562600
                                                     2        2.7050000      -89.58618000  -19.78553600
                                                     2        4.2448000       85.01801200    9.61422900
                                                     1       10.7439000       50.10876800   -0.54164500
                                                     0       31.2146000        5.64266300    0.07682900
                                      D - G
                                                     2        0.2820000       -0.11851300   -0.01299200
                                                     2        1.2672000      -17.32895000    0.60627900
                                                     2        1.5692000       49.30339200   -1.31436900
                                                     2        2.3019000     -115.68026800   -0.02155200
                                                     2        3.2936000      226.66457000    7.15442500
                                                     2        4.6091000     -154.83076900   -9.17221300
                                                     1        7.7365000       59.63910000    0.46198200
                                                     0       36.1000000        6.81120200   -0.06518500
                                      F - G
                                                     2        0.3213000      -28.15009500    0.08326200
                                                     2        0.3338000       31.23972700   -0.08566500
                                                     2        1.3912000       47.82197000   -1.40581500
                                                     2        1.4978000      -29.59718500    1.29234900
                                                     2        3.3704000       68.58837100   -8.96269500
                                                     2        3.5468000      -27.41664200    8.53959100
                                                     1        8.2835000       44.57673700    0.03823400
                                                     0       23.9644000        4.99491900   -0.00013500
    6         78           10
                                      G and up 
                                                     2        0.9121000       -0.97492800   -0.03342500
                                                     2        2.1654000       -9.49699300    0.06250400
                                                     2        6.0658000      -31.97232500   -0.22863200
                                                     2       15.5208000     -115.02309300    0.51435300
                                                     2       52.9464000     -275.53891400    0.64900500
                                                     1      160.8809000      -50.80278000    2.08263100
                                      S - G
                                                     2        1.1433000      -80.75402100    0.00000000
                                                     2        1.3248000      255.40243000    0.00000000
                                                     2        1.7240000     -314.58084500    0.00000000
                                                     2        2.4106000      297.73494000    0.00000000
                                                     2        3.4997000     -197.63933800    0.00000000
                                                     2        5.1300000      146.50839800    0.00000000
                                                     1       12.9092000       48.66068400    0.00000000
                                                     0       34.2266000        4.06491200    0.00000000
                                      P - G
                                                     2        0.8516000      -17.78671700   11.38657300
                                                     2        0.9751000       96.91400300  -14.23379800
                                                     2        1.2662000     -146.01452600   -5.86430100
                                                     2        1.8051000      147.23194700   21.05562600
                                                     2        2.7050000      -89.58618000  -19.78553600
                                                     2        4.2448000       85.01801200    9.61422900
                                                     1       10.7439000       50.10876800   -0.54164500
                                                     0       31.2146000        5.64266300    0.07682900
                                      D - G
                                                     2        0.2820000       -0.11851300   -0.01299200
                                                     2        1.2672000      -17.32895000    0.60627900
                                                     2        1.5692000       49.30339200   -1.31436900
                                                     2        2.3019000     -115.68026800   -0.02155200
                                                     2        3.2936000      226.66457000    7.15442500
                                                     2        4.6091000     -154.83076900   -9.17221300
                                                     1        7.7365000       59.63910000    0.46198200
                                                     0       36.1000000        6.81120200   -0.06518500
                                      F - G
                                                     2        0.3213000      -28.15009500    0.08326200
                                                     2        0.3338000       31.23972700   -0.08566500
                                                     2        1.3912000       47.82197000   -1.40581500
                                                     2        1.4978000      -29.59718500    1.29234900
                                                     2        3.3704000       68.58837100   -8.96269500
                                                     2        3.5468000      -27.41664200    8.53959100
                                                     1        8.2835000       44.57673700    0.03823400
                                                     0       23.9644000        4.99491900   -0.00013500
    7         78           10
                                      G and up 
                                                     2        0.9121000       -0.97492800   -0.03342500
                                                     2        2.1654000       -9.49699300    0.06250400
                                                     2        6.0658000      -31.97232500   -0.22863200
                                                     2       15.5208000     -115.02309300    0.51435300
                                                     2       52.9464000     -275.53891400    0.64900500
                                                     1      160.8809000      -50.80278000    2.08263100
                                      S - G
                                                     2        1.1433000      -80.75402100    0.00000000
                                                     2        1.3248000      255.40243000    0.00000000
                                                     2        1.7240000     -314.58084500    0.00000000
                                                     2        2.4106000      297.73494000    0.00000000
                                                     2        3.4997000     -197.63933800    0.00000000
                                                     2        5.1300000      146.50839800    0.00000000
                                                     1       12.9092000       48.66068400    0.00000000
                                                     0       34.2266000        4.06491200    0.00000000
                                      P - G
                                                     2        0.8516000      -17.78671700   11.38657300
                                                     2        0.9751000       96.91400300  -14.23379800
                                                     2        1.2662000     -146.01452600   -5.86430100
                                                     2        1.8051000      147.23194700   21.05562600
                                                     2        2.7050000      -89.58618000  -19.78553600
                                                     2        4.2448000       85.01801200    9.61422900
                                                     1       10.7439000       50.10876800   -0.54164500
                                                     0       31.2146000        5.64266300    0.07682900
                                      D - G
                                                     2        0.2820000       -0.11851300   -0.01299200
                                                     2        1.2672000      -17.32895000    0.60627900
                                                     2        1.5692000       49.30339200   -1.31436900
                                                     2        2.3019000     -115.68026800   -0.02155200
                                                     2        3.2936000      226.66457000    7.15442500
                                                     2        4.6091000     -154.83076900   -9.17221300
                                                     1        7.7365000       59.63910000    0.46198200
                                                     0       36.1000000        6.81120200   -0.06518500
                                      F - G
                                                     2        0.3213000      -28.15009500    0.08326200
                                                     2        0.3338000       31.23972700   -0.08566500
                                                     2        1.3912000       47.82197000   -1.40581500
                                                     2        1.4978000      -29.59718500    1.29234900
                                                     2        3.3704000       68.58837100   -8.96269500
                                                     2        3.5468000      -27.41664200    8.53959100
                                                     1        8.2835000       44.57673700    0.03823400
                                                     0       23.9644000        4.99491900   -0.00013500
    8         78           10
                                      G and up 
                                                     2        0.9121000       -0.97492800   -0.03342500
                                                     2        2.1654000       -9.49699300    0.06250400
                                                     2        6.0658000      -31.97232500   -0.22863200
                                                     2       15.5208000     -115.02309300    0.51435300
                                                     2       52.9464000     -275.53891400    0.64900500
                                                     1      160.8809000      -50.80278000    2.08263100
                                      S - G
                                                     2        1.1433000      -80.75402100    0.00000000
                                                     2        1.3248000      255.40243000    0.00000000
                                                     2        1.7240000     -314.58084500    0.00000000
                                                     2        2.4106000      297.73494000    0.00000000
                                                     2        3.4997000     -197.63933800    0.00000000
                                                     2        5.1300000      146.50839800    0.00000000
                                                     1       12.9092000       48.66068400    0.00000000
                                                     0       34.2266000        4.06491200    0.00000000
                                      P - G
                                                     2        0.8516000      -17.78671700   11.38657300
                                                     2        0.9751000       96.91400300  -14.23379800
                                                     2        1.2662000     -146.01452600   -5.86430100
                                                     2        1.8051000      147.23194700   21.05562600
                                                     2        2.7050000      -89.58618000  -19.78553600
                                                     2        4.2448000       85.01801200    9.61422900
                                                     1       10.7439000       50.10876800   -0.54164500
                                                     0       31.2146000        5.64266300    0.07682900
                                      D - G
                                                     2        0.2820000       -0.11851300   -0.01299200
                                                     2        1.2672000      -17.32895000    0.60627900
                                                     2        1.5692000       49.30339200   -1.31436900
                                                     2        2.3019000     -115.68026800   -0.02155200
                                                     2        3.2936000      226.66457000    7.15442500
                                                     2        4.6091000     -154.83076900   -9.17221300
                                                     1        7.7365000       59.63910000    0.46198200
                                                     0       36.1000000        6.81120200   -0.06518500
                                      F - G
                                                     2        0.3213000      -28.15009500    0.08326200
                                                     2        0.3338000       31.23972700   -0.08566500
                                                     2        1.3912000       47.82197000   -1.40581500
                                                     2        1.4978000      -29.59718500    1.29234900
                                                     2        3.3704000       68.58837100   -8.96269500
                                                     2        3.5468000      -27.41664200    8.53959100
                                                     1        8.2835000       44.57673700    0.03823400
                                                     0       23.9644000        4.99491900   -0.00013500
    9         78           10
                                      G and up 
                                                     2        0.9121000       -0.97492800   -0.03342500
                                                     2        2.1654000       -9.49699300    0.06250400
                                                     2        6.0658000      -31.97232500   -0.22863200
                                                     2       15.5208000     -115.02309300    0.51435300
                                                     2       52.9464000     -275.53891400    0.64900500
                                                     1      160.8809000      -50.80278000    2.08263100
                                      S - G
                                                     2        1.1433000      -80.75402100    0.00000000
                                                     2        1.3248000      255.40243000    0.00000000
                                                     2        1.7240000     -314.58084500    0.00000000
                                                     2        2.4106000      297.73494000    0.00000000
                                                     2        3.4997000     -197.63933800    0.00000000
                                                     2        5.1300000      146.50839800    0.00000000
                                                     1       12.9092000       48.66068400    0.00000000
                                                     0       34.2266000        4.06491200    0.00000000
                                      P - G
                                                     2        0.8516000      -17.78671700   11.38657300
                                                     2        0.9751000       96.91400300  -14.23379800
                                                     2        1.2662000     -146.01452600   -5.86430100
                                                     2        1.8051000      147.23194700   21.05562600
                                                     2        2.7050000      -89.58618000  -19.78553600
                                                     2        4.2448000       85.01801200    9.61422900
                                                     1       10.7439000       50.10876800   -0.54164500
                                                     0       31.2146000        5.64266300    0.07682900
                                      D - G
                                                     2        0.2820000       -0.11851300   -0.01299200
                                                     2        1.2672000      -17.32895000    0.60627900
                                                     2        1.5692000       49.30339200   -1.31436900
                                                     2        2.3019000     -115.68026800   -0.02155200
                                                     2        3.2936000      226.66457000    7.15442500
                                                     2        4.6091000     -154.83076900   -9.17221300
                                                     1        7.7365000       59.63910000    0.46198200
                                                     0       36.1000000        6.81120200   -0.06518500
                                      F - G
                                                     2        0.3213000      -28.15009500    0.08326200
                                                     2        0.3338000       31.23972700   -0.08566500
                                                     2        1.3912000       47.82197000   -1.40581500
                                                     2        1.4978000      -29.59718500    1.29234900
                                                     2        3.3704000       68.58837100   -8.96269500
                                                     2        3.5468000      -27.41664200    8.53959100
                                                     1        8.2835000       44.57673700    0.03823400
                                                     0       23.9644000        4.99491900   -0.00013500
   10         78           18
                                      H and up 
                                                     2        1.0000000        0.00000000    0.00000000
                                      S - H
                                                     2       14.6045000      429.64608700    0.00000000
                                                     2        7.2182870       73.15688400    0.00000000
                                      P - H
                                                     2       11.5771620       88.02291700    0.00000000
                                                     2       10.8838430      175.99819600    0.00000000
                                                     2        6.4244030       13.68227400    0.00000000
                                                     2        5.2241980       27.41465100    0.00000000
                                      D - H
                                                     2        7.6996100       43.55785200    0.00000000
                                                     2        7.5508080       65.36910800    0.00000000
                                                     2        3.9611640        7.01859600    0.00000000
                                                     2        3.8727770       11.39173300    0.00000000
                                      F - H
                                                     2        3.3798690       10.71022000    0.00000000
                                                     2        3.3262550       14.27812500    0.00000000
                                      G - H
                                                     2        5.4520200      -11.65174900    0.00000000
                                                     2        5.4125850      -14.37552500    0.00000000
   11         78           18
                                      H and up 
                                                     2        1.0000000        0.00000000    0.00000000
                                      S - H
                                                     2       14.6045000      429.64608700    0.00000000
                                                     2        7.2182870       73.15688400    0.00000000
                                      P - H
                                                     2       11.5771620       88.02291700    0.00000000
                                                     2       10.8838430      175.99819600    0.00000000
                                                     2        6.4244030       13.68227400    0.00000000
                                                     2        5.2241980       27.41465100    0.00000000
                                      D - H
                                                     2        7.6996100       43.55785200    0.00000000
                                                     2        7.5508080       65.36910800    0.00000000
                                                     2        3.9611640        7.01859600    0.00000000
                                                     2        3.8727770       11.39173300    0.00000000
                                      F - H
                                                     2        3.3798690       10.71022000    0.00000000
                                                     2        3.3262550       14.27812500    0.00000000
                                      G - H
                                                     2        5.4520200      -11.65174900    0.00000000
                                                     2        5.4125850      -14.37552500    0.00000000
   12         78           18
                                      H and up 
                                                     2        1.0000000        0.00000000    0.00000000
                                      S - H
                                                     2       14.6045000      429.64608700    0.00000000
                                                     2        7.2182870       73.15688400    0.00000000
                                      P - H
                                                     2       11.5771620       88.02291700    0.00000000
                                                     2       10.8838430      175.99819600    0.00000000
                                                     2        6.4244030       13.68227400    0.00000000
                                                     2        5.2241980       27.41465100    0.00000000
                                      D - H
                                                     2        7.6996100       43.55785200    0.00000000
                                                     2        7.5508080       65.36910800    0.00000000
                                                     2        3.9611640        7.01859600    0.00000000
                                                     2        3.8727770       11.39173300    0.00000000
                                      F - H
                                                     2        3.3798690       10.71022000    0.00000000
                                                     2        3.3262550       14.27812500    0.00000000
                                      G - H
                                                     2        5.4520200      -11.65174900    0.00000000
                                                     2        5.4125850      -14.37552500    0.00000000
   13         78           18
                                      H and up 
                                                     2        1.0000000        0.00000000    0.00000000
                                      S - H
                                                     2       14.6045000      429.64608700    0.00000000
                                                     2        7.2182870       73.15688400    0.00000000
                                      P - H
                                                     2       11.5771620       88.02291700    0.00000000
                                                     2       10.8838430      175.99819600    0.00000000
                                                     2        6.4244030       13.68227400    0.00000000
                                                     2        5.2241980       27.41465100    0.00000000
                                      D - H
                                                     2        7.6996100       43.55785200    0.00000000
                                                     2        7.5508080       65.36910800    0.00000000
                                                     2        3.9611640        7.01859600    0.00000000
                                                     2        3.8727770       11.39173300    0.00000000
                                      F - H
                                                     2        3.3798690       10.71022000    0.00000000
                                                     2        3.3262550       14.27812500    0.00000000
                                      G - H
                                                     2        5.4520200      -11.65174900    0.00000000
                                                     2        5.4125850      -14.37552500    0.00000000
   14         78           18
                                      H and up 
                                                     2        1.0000000        0.00000000    0.00000000
                                      S - H
                                                     2       14.6045000      429.64608700    0.00000000
                                                     2        7.2182870       73.15688400    0.00000000
                                      P - H
                                                     2       11.5771620       88.02291700    0.00000000
                                                     2       10.8838430      175.99819600    0.00000000
                                                     2        6.4244030       13.68227400    0.00000000
                                                     2        5.2241980       27.41465100    0.00000000
                                      D - H
                                                     2        7.6996100       43.55785200    0.00000000
                                                     2        7.5508080       65.36910800    0.00000000
                                                     2        3.9611640        7.01859600    0.00000000
                                                     2        3.8727770       11.39173300    0.00000000
                                      F - H
                                                     2        3.3798690       10.71022000    0.00000000
                                                     2        3.3262550       14.27812500    0.00000000
                                      G - H
                                                     2        5.4520200      -11.65174900    0.00000000
                                                     2        5.4125850      -14.37552500    0.00000000
   15         78           18
                                      H and up 
                                                     2        1.0000000        0.00000000    0.00000000
                                      S - H
                                                     2       14.6045000      429.64608700    0.00000000
                                                     2        7.2182870       73.15688400    0.00000000
                                      P - H
                                                     2       11.5771620       88.02291700    0.00000000
                                                     2       10.8838430      175.99819600    0.00000000
                                                     2        6.4244030       13.68227400    0.00000000
                                                     2        5.2241980       27.41465100    0.00000000
                                      D - H
                                                     2        7.6996100       43.55785200    0.00000000
                                                     2        7.5508080       65.36910800    0.00000000
                                                     2        3.9611640        7.01859600    0.00000000
                                                     2        3.8727770       11.39173300    0.00000000
                                      F - H
                                                     2        3.3798690       10.71022000    0.00000000
                                                     2        3.3262550       14.27812500    0.00000000
                                      G - H
                                                     2        5.4520200      -11.65174900    0.00000000
                                                     2        5.4125850      -14.37552500    0.00000000
   16         78           18
                                      H and up 
                                                     2        1.0000000        0.00000000    0.00000000
                                      S - H
                                                     2       14.6045000      429.64608700    0.00000000
                                                     2        7.2182870       73.15688400    0.00000000
                                      P - H
                                                     2       11.5771620       88.02291700    0.00000000
                                                     2       10.8838430      175.99819600    0.00000000
                                                     2        6.4244030       13.68227400    0.00000000
                                                     2        5.2241980       27.41465100    0.00000000
                                      D - H
                                                     2        7.6996100       43.55785200    0.00000000
                                                     2        7.5508080       65.36910800    0.00000000
                                                     2        3.9611640        7.01859600    0.00000000
                                                     2        3.8727770       11.39173300    0.00000000
                                      F - H
                                                     2        3.3798690       10.71022000    0.00000000
                                                     2        3.3262550       14.27812500    0.00000000
                                      G - H
                                                     2        5.4520200      -11.65174900    0.00000000
                                                     2        5.4125850      -14.37552500    0.00000000
   17         78           18
                                      H and up 
                                                     2        1.0000000        0.00000000    0.00000000
                                      S - H
                                                     2       14.6045000      429.64608700    0.00000000
                                                     2        7.2182870       73.15688400    0.00000000
                                      P - H
                                                     2       11.5771620       88.02291700    0.00000000
                                                     2       10.8838430      175.99819600    0.00000000
                                                     2        6.4244030       13.68227400    0.00000000
                                                     2        5.2241980       27.41465100    0.00000000
                                      D - H
                                                     2        7.6996100       43.55785200    0.00000000
                                                     2        7.5508080       65.36910800    0.00000000
                                                     2        3.9611640        7.01859600    0.00000000
[...]
 Alpha  occ. eigenvalues --   -0.27062  -0.26993  -0.26990  -0.26860  -0.26789
 Alpha  occ. eigenvalues --   -0.26749  -0.26496  -0.26243  -0.26135  -0.26085
 Alpha  occ. eigenvalues --   -0.26038  -0.26036  -0.25858  -0.25857  -0.25819
 Alpha  occ. eigenvalues --   -0.25631  -0.25453  -0.25423  -0.25190  -0.25186
 Alpha  occ. eigenvalues --   -0.25098  -0.25093  -0.24983  -0.24968  -0.24838
 Alpha  occ. eigenvalues --   -0.24699  -0.24612  -0.24562  -0.24364  -0.24315
 Alpha virt. eigenvalues --   -0.24091  -0.23924  -0.23852  -0.23688  -0.23603
 Alpha virt. eigenvalues --   -0.23053  -0.22858  -0.22427  -0.22396  -0.21147
 Alpha virt. eigenvalues --   -0.19170  -0.18480  -0.18442  -0.17369  -0.16949
 Alpha virt. eigenvalues --   -0.16131  -0.15391  -0.15042  -0.14010  -0.13281
 Alpha virt. eigenvalues --   -0.12799  -0.11485  -0.11368  -0.10618  -0.09895
 Alpha virt. eigenvalues --   -0.09473  -0.08208  -0.08114  -0.07630  -0.07080
 Alpha virt. eigenvalues --   -0.06009  -0.05930  -0.05507  -0.04779  -0.04456
 Alpha virt. eigenvalues --   -0.03473  -0.03178  -0.02668  -0.02630  -0.02172
 Alpha virt. eigenvalues --   -0.01738  -0.01518  -0.01365  -0.01314   0.00822
 Alpha virt. eigenvalues --    0.00826   0.01249   0.02661   0.03138   0.03362
 Alpha virt. eigenvalues --    0.03630   0.03658   0.05008   0.05082   0.05331
 Alpha virt. eigenvalues --    0.05485   0.05972   0.07961   0.09798   0.09928
 Alpha virt. eigenvalues --    0.10337   0.11015   0.11234   0.11312   0.13327
 Alpha virt. eigenvalues --    0.13331   0.13670   0.18141   0.18435   0.23581
 Alpha virt. eigenvalues --    0.24019   0.24337   0.24426   0.24547   0.25948
 Alpha virt. eigenvalues --    0.26405   0.27026   0.27476   0.27737   0.27970
 Alpha virt. eigenvalues --    0.30144   0.30334   0.30882   0.32489   0.34001
 Alpha virt. eigenvalues --    0.34019   0.38604   0.41456   0.42324   0.42917
 Alpha virt. eigenvalues --    0.43091   0.44411   0.45776   0.45812   0.46812
 Alpha virt. eigenvalues --    0.47023   0.47630   0.50952   0.55750   0.58967
 Alpha virt. eigenvalues --    0.64572   0.65991   0.68521   0.68760   0.77129
 Alpha virt. eigenvalues --    0.77168   0.79673   0.79684   0.80119   0.81175
 Alpha virt. eigenvalues --    0.81287   0.81524   0.81996   0.82078   0.83047
 Alpha virt. eigenvalues --    0.83479   0.83875   0.85014   0.85273   0.87628
 Alpha virt. eigenvalues --    0.87885   0.89356   0.89970   0.90619   0.91999
 Alpha virt. eigenvalues --    0.92320   0.94225   0.96365   0.96413   0.98801
 Alpha virt. eigenvalues --    1.01257   1.02248   1.02255   1.02561   1.02999
 Alpha virt. eigenvalues --    1.04474   1.07616   1.08704   1.08824   1.09212
 Alpha virt. eigenvalues --    1.09882   1.11875   1.12210   1.12420   1.15008
 Alpha virt. eigenvalues --    1.15122   1.18230   1.19732   1.20417   1.25408
 Alpha virt. eigenvalues --    1.26866   1.27183   1.34108   1.37261   1.41592
 Alpha virt. eigenvalues --    1.41779   1.47697   1.52897   1.84168   1.84653
 Alpha virt. eigenvalues --    1.88779   1.89130   9.94420  10.07302  10.38329
 Alpha virt. eigenvalues --   10.39937  10.41478  10.73103  10.76559  10.76637
 Alpha virt. eigenvalues --   10.78215  10.79040  10.94319  10.94539  10.98987
 Alpha virt. eigenvalues --   10.99515  10.99673  11.02402  11.02900  11.25056
 Alpha virt. eigenvalues --   11.25218  11.25922  11.27127  11.38105  11.38106
 Alpha virt. eigenvalues --   11.39644  11.40182  11.44070  11.50591  11.55930
 Alpha virt. eigenvalues --   11.56274  11.90583  11.93570  11.96497  11.97445
 Alpha virt. eigenvalues --   12.12975  12.13127  12.16927  12.16961  12.18188
 Alpha virt. eigenvalues --   12.20682  12.21836  12.25871  12.27083  12.49234
 Alpha virt. eigenvalues --   12.64939  12.69316  12.71160  13.02209  13.15228
 Alpha virt. eigenvalues --   13.95470  13.97778  21.03301  21.05372  21.21984
 Alpha virt. eigenvalues --   21.30876  21.31731  21.51958  21.52939  21.54057
 Alpha virt. eigenvalues --   21.73302  21.73443  21.76528  21.78005  21.78019
 Alpha virt. eigenvalues --   21.80940  22.63287  22.79175  23.57453  23.57657
 Alpha virt. eigenvalues --   23.58178  23.58934  24.35073  24.54399  24.55459
 Alpha virt. eigenvalues --   24.68779  24.70572  24.80697  24.83512  25.38643
 Alpha virt. eigenvalues --   25.39635  26.80486  37.35965  37.46230  37.68574
 Alpha virt. eigenvalues --   37.70605  37.71907  37.74384  37.74397  37.79786
 Alpha virt. eigenvalues --   37.81108  37.98454 218.97631 219.01919 219.11360
 Alpha virt. eigenvalues --  219.12585 219.12901 219.12933 219.15125 219.16742
 Alpha virt. eigenvalues --  219.17510 219.26295
          Condensed to atoms (all electrons):
               1          2          3          4          5          6
     1  Pt  10.737498  -0.101608  -0.164655  -0.112114  -0.165105  -0.099185
     2  Pt  -0.101608  10.558574  -0.009826  -0.155469  -0.100416  -0.042075
     3  Pt  -0.164655  -0.009826  10.737498  -0.112114  -0.065381  -0.099185
     4  Pt  -0.112114  -0.155469  -0.112114  10.902451  -0.112834  -0.154633
     5  Pt  -0.165105  -0.100416  -0.065381  -0.112834  10.738613  -0.009942
     6  Pt  -0.099185  -0.042075  -0.099185  -0.154633  -0.009942  10.553469
     7  Pt  -0.009826  -0.000978  -0.101608  -0.155469  -0.009749  -0.042075
     8  Pt  -0.065381  -0.009749  -0.165105  -0.112834  -0.164393  -0.009942
     9  Pt  -0.009646  -0.041667  -0.009646  -0.154944  -0.100714  -0.000997
    10  Pt   0.093055  -0.003419   0.093055   0.047363  -0.006004   0.111162
    11  Pt   0.092842   0.110982  -0.006022   0.047816   0.093121  -0.003578
    12  Pt  -0.006022  -0.001019   0.092842   0.047816  -0.005907  -0.003578
    13  Pt  -0.005991  -0.003578  -0.005991   0.048700   0.093085  -0.000975
    14  Pt   0.002177  -0.002275   0.002177   0.007763   0.002093  -0.002247
    15  Pt   0.000374  -0.000119   0.000374   0.000035   0.000349  -0.000156
    16  Pt  -0.000000   0.000002  -0.000000  -0.000018  -0.000003   0.000031
    17  Pt  -0.000003   0.000032  -0.000004  -0.000017   0.000002   0.000004
    18  Pt  -0.000004  -0.000001  -0.000003  -0.000017  -0.000004   0.000004
    19  Pt  -0.000005   0.000005  -0.000005  -0.000016  -0.000001  -0.000001
    20  Pt   0.000029   0.000004   0.000029   0.000015  -0.000006  -0.000056
    21  Pt  -0.000046   0.000023   0.000003  -0.000026   0.000006   0.000031
    22  Pt   0.000037  -0.000056  -0.000005   0.000017   0.000021   0.000001
    23  Pt   0.000003  -0.000005  -0.000046  -0.000026   0.000002   0.000031
    24  Pt  -0.000003   0.000001  -0.000003   0.000019   0.000029   0.000001
    25  Pt  -0.000030   0.000017  -0.000030  -0.000007  -0.000022   0.000020
    26  Pt  -0.000004   0.000035   0.000001  -0.000027  -0.000041  -0.000004
    27  Pt  -0.000005   0.000001   0.000037   0.000017  -0.000004   0.000001
    28  Pt   0.000001  -0.000004  -0.000004  -0.000027   0.000001  -0.000004
               7          8          9         10         11         12
     1  Pt  -0.009826  -0.065381  -0.009646   0.093055   0.092842  -0.006022
     2  Pt  -0.000978  -0.009749  -0.041667  -0.003419   0.110982  -0.001019
     3  Pt  -0.101608  -0.165105  -0.009646   0.093055  -0.006022   0.092842
     4  Pt  -0.155469  -0.112834  -0.154944   0.047363   0.047816   0.047816
     5  Pt  -0.009749  -0.164393  -0.100714  -0.006004   0.093121  -0.005907
     6  Pt  -0.042075  -0.009942  -0.000997   0.111162  -0.003578  -0.003578
     7  Pt  10.558574  -0.100416  -0.041667  -0.003419  -0.001019   0.110982
     8  Pt  -0.100416  10.738613  -0.100714  -0.006004  -0.005907   0.093121
     9  Pt  -0.041667  -0.100714  10.551888  -0.001059  -0.003462  -0.003462
    10  Pt  -0.003419  -0.006004  -0.001059  17.009216   0.086924   0.086924
    11  Pt  -0.001019  -0.005907  -0.003462   0.086924  17.027055  -0.000495
    12  Pt   0.110982   0.093121  -0.003462   0.086924  -0.000495  17.027055
    13  Pt  -0.003578   0.093085   0.111965  -0.000499   0.089309   0.089309
    14  Pt  -0.002275   0.002093  -0.002253   0.120258   0.108412   0.108412
    15  Pt  -0.000119   0.000349  -0.000090  -0.000011   0.000020   0.000020
    16  Pt   0.000002  -0.000003  -0.000001  -0.000000  -0.000000  -0.000000
    17  Pt  -0.000001  -0.000004   0.000003  -0.000000  -0.000000  -0.000000
    18  Pt   0.000032   0.000002   0.000003  -0.000000  -0.000000  -0.000000
    19  Pt   0.000005  -0.000001   0.000033  -0.000000  -0.000000  -0.000000
    20  Pt   0.000004  -0.000006   0.000002   0.000037   0.000003   0.000003
    21  Pt  -0.000005   0.000002  -0.000005  -0.000003   0.000000  -0.000004
    22  Pt   0.000001  -0.000004   0.000003   0.000005   0.000033  -0.000001
    23  Pt   0.000023   0.000006  -0.000005  -0.000003  -0.000004   0.000000
    24  Pt   0.000001   0.000029  -0.000056  -0.000001   0.000004   0.000004
    25  Pt   0.000017  -0.000022   0.000015  -0.000021  -0.000018  -0.000018
    26  Pt  -0.000004   0.000001   0.000027  -0.000004  -0.000003  -0.000004
    27  Pt  -0.000056   0.000021   0.000003   0.000005  -0.000001   0.000033
    28  Pt   0.000035  -0.000041   0.000027  -0.000004  -0.000004  -0.000003
              13         14         15         16         17         18
     1  Pt  -0.005991   0.002177   0.000374  -0.000000  -0.000003  -0.000004
     2  Pt  -0.003578  -0.002275  -0.000119   0.000002   0.000032  -0.000001
     3  Pt  -0.005991   0.002177   0.000374  -0.000000  -0.000004  -0.000003
     4  Pt   0.048700   0.007763   0.000035  -0.000018  -0.000017  -0.000017
     5  Pt   0.093085   0.002093   0.000349  -0.000003   0.000002  -0.000004
     6  Pt  -0.000975  -0.002247  -0.000156   0.000031   0.000004   0.000004
     7  Pt  -0.003578  -0.002275  -0.000119   0.000002  -0.000001   0.000032
     8  Pt   0.093085   0.002093   0.000349  -0.000003  -0.000004   0.000002
     9  Pt   0.111965  -0.002253  -0.000090  -0.000001   0.000003   0.000003
    10  Pt  -0.000499   0.120258  -0.000011  -0.000000  -0.000000  -0.000000
    11  Pt   0.089309   0.108412   0.000020  -0.000000  -0.000000  -0.000000
    12  Pt   0.089309   0.108412   0.000020  -0.000000  -0.000000  -0.000000
    13  Pt  17.023987   0.096670   0.000042  -0.000000  -0.000000  -0.000000
    14  Pt   0.096670  17.249895   0.222998   0.000051   0.000020   0.000020
    15  Pt   0.000042   0.222998  17.250898   0.108255   0.108516   0.108516
    16  Pt  -0.000000   0.000051   0.108255  17.014328   0.087400   0.087400
    17  Pt  -0.000000   0.000020   0.108516   0.087400  17.015717  -0.000560
    18  Pt  -0.000000   0.000020   0.108516   0.087400  -0.000560  17.015717
    19  Pt  -0.000000  -0.000006   0.108929  -0.000562   0.087418   0.087418
    20  Pt  -0.000001  -0.000114  -0.002408   0.112811  -0.003684  -0.003684
    21  Pt  -0.000004   0.000392   0.002092   0.094636   0.094556  -0.006183
    22  Pt   0.000003  -0.000123  -0.002304  -0.003709   0.112563  -0.001000
    23  Pt  -0.000004   0.000392   0.002092   0.094636  -0.006183   0.094556
    24  Pt   0.000029  -0.000131  -0.002184  -0.001000  -0.003731  -0.003731
    25  Pt  -0.000015   0.000072   0.009234   0.052712   0.052800   0.052800
    26  Pt   0.000000   0.000344   0.002014  -0.006201   0.094618  -0.006200
    27  Pt   0.000003  -0.000123  -0.002304  -0.003709  -0.001000   0.112563
    28  Pt   0.000000   0.000344   0.002014  -0.006201  -0.006200   0.094618
              19         20         21         22         23         24
     1  Pt  -0.000005   0.000029  -0.000046   0.000037   0.000003  -0.000003
     2  Pt   0.000005   0.000004   0.000023  -0.000056  -0.000005   0.000001
     3  Pt  -0.000005   0.000029   0.000003  -0.000005  -0.000046  -0.000003
     4  Pt  -0.000016   0.000015  -0.000026   0.000017  -0.000026   0.000019
     5  Pt  -0.000001  -0.000006   0.000006   0.000021   0.000002   0.000029
     6  Pt  -0.000001  -0.000056   0.000031   0.000001   0.000031   0.000001
     7  Pt   0.000005   0.000004  -0.000005   0.000001   0.000023   0.000001
     8  Pt  -0.000001  -0.000006   0.000002  -0.000004   0.000006   0.000029
     9  Pt   0.000033   0.000002  -0.000005   0.000003  -0.000005  -0.000056
    10  Pt  -0.000000   0.000037  -0.000003   0.000005  -0.000003  -0.000001
    11  Pt  -0.000000   0.000003   0.000000   0.000033  -0.000004   0.000004
    12  Pt  -0.000000   0.000003  -0.000004  -0.000001   0.000000   0.000004
    13  Pt  -0.000000  -0.000001  -0.000004   0.000003  -0.000004   0.000029
    14  Pt  -0.000006  -0.000114   0.000392  -0.000123   0.000392  -0.000131
    15  Pt   0.108929  -0.002408   0.002092  -0.002304   0.002092  -0.002184
    16  Pt  -0.000562   0.112811   0.094636  -0.003709   0.094636  -0.001000
    17  Pt   0.087418  -0.003684   0.094556   0.112563  -0.006183  -0.003731
    18  Pt   0.087418  -0.003684  -0.006183  -0.001000   0.094556  -0.003731
    19  Pt  17.016023  -0.001006  -0.006200  -0.003715  -0.006200   0.112418
    20  Pt  -0.001006  10.536669  -0.095068  -0.041834  -0.095068  -0.000857
    21  Pt  -0.006200  -0.095068  10.699413  -0.094438  -0.158118  -0.009289
    22  Pt  -0.003715  -0.041834  -0.094438  10.534138  -0.009261  -0.041793
    23  Pt  -0.006200  -0.095068  -0.158118  -0.009261  10.699413  -0.009289
    24  Pt   0.112418  -0.000857  -0.009289  -0.041793  -0.009289  10.533884
    25  Pt   0.052981  -0.148614  -0.104146  -0.148601  -0.104146  -0.148335
    26  Pt   0.094611  -0.009266  -0.157857  -0.094550  -0.064464  -0.094508
    27  Pt  -0.003715  -0.041834  -0.009261  -0.000859  -0.094438  -0.041793
    28  Pt   0.094611  -0.009266  -0.064464  -0.009275  -0.157857  -0.094508
              25         26         27         28
     1  Pt  -0.000030  -0.000004  -0.000005   0.000001
     2  Pt   0.000017   0.000035   0.000001  -0.000004
     3  Pt  -0.000030   0.000001   0.000037  -0.000004
     4  Pt  -0.000007  -0.000027   0.000017  -0.000027
     5  Pt  -0.000022  -0.000041  -0.000004   0.000001
     6  Pt   0.000020  -0.000004   0.000001  -0.000004
     7  Pt   0.000017  -0.000004  -0.000056   0.000035
     8  Pt  -0.000022   0.000001   0.000021  -0.000041
     9  Pt   0.000015   0.000027   0.000003   0.000027
    10  Pt  -0.000021  -0.000004   0.000005  -0.000004
    11  Pt  -0.000018  -0.000003  -0.000001  -0.000004
    12  Pt  -0.000018  -0.000004   0.000033  -0.000003
    13  Pt  -0.000015   0.000000   0.000003   0.000000
    14  Pt   0.000072   0.000344  -0.000123   0.000344
    15  Pt   0.009234   0.002014  -0.002304   0.002014
    16  Pt   0.052712  -0.006201  -0.003709  -0.006201
    17  Pt   0.052800   0.094618  -0.001000  -0.006200
    18  Pt   0.052800  -0.006200   0.112563   0.094618
    19  Pt   0.052981   0.094611  -0.003715   0.094611
    20  Pt  -0.148614  -0.009266  -0.041834  -0.009266
    21  Pt  -0.104146  -0.157857  -0.009261  -0.064464
    22  Pt  -0.148601  -0.094550  -0.000859  -0.009275
    23  Pt  -0.104146  -0.064464  -0.094438  -0.157857
    24  Pt  -0.148335  -0.094508  -0.041793  -0.094508
    25  Pt  10.813907  -0.104151  -0.148601  -0.104151
    26  Pt  -0.104151  10.699825  -0.009275  -0.158238
    27  Pt  -0.148601  -0.009275  10.534138  -0.094550
    28  Pt  -0.104151  -0.158238  -0.094550  10.699825
 Mulliken charges:
               1
     1  Pt  -0.186381
     2  Pt  -0.197413
     3  Pt  -0.186381
     4  Pt  -0.031421
     5  Pt  -0.186795
     6  Pt  -0.196119
     7  Pt  -0.197413
     8  Pt  -0.186795
     9  Pt  -0.193582
    10  Pt   0.372449
    11  Pt   0.363992
    12  Pt   0.363992
    13  Pt   0.374446
    14  Pt   0.084966
    15  Pt   0.082573
    16  Pt   0.369144
    17  Pt   0.367738
    18  Pt   0.367738
    19  Pt   0.366981
    20  Pt  -0.196834
    21  Pt  -0.186036
    22  Pt  -0.195295
    23  Pt  -0.186036
    24  Pt  -0.195204
    25  Pt  -0.023649
    26  Pt  -0.186678
    27  Pt  -0.195295
    28  Pt  -0.186678
 Sum of Mulliken charges =   0.00001
 Mulliken charges with hydrogens summed into heavy atoms:
               1
     1  Pt  -0.186381
     2  Pt  -0.197413
     3  Pt  -0.186381
     4  Pt  -0.031421
     5  Pt  -0.186795
     6  Pt  -0.196119
     7  Pt  -0.197413
     8  Pt  -0.186795
     9  Pt  -0.193582
    10  Pt   0.372449
    11  Pt   0.363992
    12  Pt   0.363992
    13  Pt   0.374446
    14  Pt   0.084966
    15  Pt   0.082573
    16  Pt   0.369144
    17  Pt   0.367738
    18  Pt   0.367738
    19  Pt   0.366981
    20  Pt  -0.196834
    21  Pt  -0.186036
    22  Pt  -0.195295
    23  Pt  -0.186036
    24  Pt  -0.195204
    25  Pt  -0.023649
    26  Pt  -0.186678
    27  Pt  -0.195295
    28  Pt  -0.186678
 Electronic spatial extent (au):  <R**2>=          32607.6025
 Charge=              0.0000 electrons
 Dipole moment (field-independent basis, Debye):
    X=              0.0007    Y=             -0.2041    Z=             -0.0000  Tot=              0.2041
 Quadrupole moment (field-independent basis, Debye-Ang):
   XX=           -640.7146   YY=           -830.6380   ZZ=           -641.3640
   XY=             -0.1815   XZ=              0.0000   YZ=             -0.0000
 Traceless Quadrupole moment (field-independent basis, Debye-Ang):
   XX=             63.5242   YY=           -126.3991   ZZ=             62.8749
   XY=             -0.1815   XZ=              0.0000   YZ=             -0.0000
 Octapole moment (field-independent basis, Debye-Ang**2):
  XXX=              0.0620  YYY=            -11.6604  ZZZ=             -0.0000  XYY=             -0.7664
  XXY=             -1.2192  XXZ=              0.0000  XZZ=             -0.1335  YZZ=             -5.2602
  YYZ=             -0.0000  XYZ=             -0.0000
 Hexadecapole moment (field-independent basis, Debye-Ang**3):
 XXXX=         -16400.5467 YYYY=         -82433.9337 ZZZZ=         -16406.0646 XXXY=              3.6480
 XXXZ=              0.0000 YYYX=              0.9898 YYYZ=             -0.0000 ZZZX=             -0.0000
 ZZZY=             -0.0000 XXYY=         -16900.8903 XXZZ=          -5249.4077 YYZZ=         -16912.7245
 XXYZ=              0.0000 YYXZ=             -0.0000 ZZXY=              1.9131
 N-N= 6.447053992516D+03 E-N=-1.658667674697D+04  KE= 7.743296847900D+02
 Symmetry A'   KE= 4.419033433519D+02
 Symmetry A"   KE= 3.324263414382D+02
 No NMR shielding tensors so no spin-rotation constants.
 Leave Link  601 at Wed Apr 10 13:42:50 2024, MaxMem=    33554432 cpu:         0.3
 (Enter /home/palacios/ANT/Gaussian/g09.D01.ifx/g09/l9999.exe)

 Test job not archived.
 1\1\GINC-LIAN\SP\RSVWN\Gen\Pt28\PALACIOS\10-Apr-2024\0\\#p LSDA/gen ps
 eudo=read scf=(conver=5,dsymm,maxcyc=300) test\\Pt9-Pt4-Pt-Pt-Pt4-Pt9\
 \0,1\Pt,0,-1.96,1.96,9.46\Pt,0,-3.92,0.,9.46\Pt,0,1.96,1.96,9.46\Pt,0,
 0.,0.,9.46\Pt,0,-1.96,-1.96,9.46\Pt,0,0.,3.92,9.46\Pt,0,3.92,0.,9.46\P
 t,0,1.96,-1.96,9.46\Pt,0,0.,-3.92,9.46\Pt,0,0.,1.96,7.5\Pt,0,-1.96,0.,
 7.5\Pt,0,1.96,0.,7.5\Pt,0,0.,-1.96,7.5\Pt,0,0.,0.1,5.54\Pt,0,0.,0.,3.0
 8\Pt,0,0.,1.96,1.12\Pt,0,-1.96,0.,1.12\Pt,0,1.96,0.,1.12\Pt,0,0.,-1.96
 ,1.12\Pt,0,0.,3.92,-0.84\Pt,0,-1.96,1.96,-0.84\Pt,0,-3.92,0.,-0.84\Pt,
 0,1.96,1.96,-0.84\Pt,0,0.,-3.92,-0.84\Pt,0,0.,0.,-0.84\Pt,0,-1.96,-1.9
 6,-0.84\Pt,0,3.92,0.,-0.84\Pt,0,1.96,-1.96,-0.84\\Version=ES64L-G09Rev
 D.01\State=1-A'\HF=-1691.3390244\RMSD=4.832e-06\Dipole=0.,-0.0002761,-
 0.0802985\Quadrupole=46.7459437,47.2287067,-93.9746505,0.,0.,0.1349608
 \PG=CS [SG(Pt12),X(Pt16)]\\@


 PENOTUS DIED A HUNDRED YEARS OLD WANTING BUT TWO...
 AND HE USED TO SAY BEFORE HE DIED, HAVING SPENT HIS
 WHOLE LIFE IN VAINLY SEARCHING AFTER THE PHILOSOPHER'S
 STONE, THAT IF HE HAD A MORTAL ENEMY HE DID NOT DARE
 TO ENCOUNTER OPENLY, HE WOULD ADVISE HIM ABOVE ALL
 THINGS TO GIVE HIMSELF UP TO THE STUDY AND PRACTICE
 OF ALCHEMY.  --  NICOLAS LEMERY, M.D.
 "A COURSE OF CHYMISTRY", WALTER KETTILBY, LONDON, 1686
 Job cpu time:       0 days  0 hours 45 minutes 29.3 seconds.
 File lengths (MBytes):  RWF=    106 Int=      0 D2E=      0 Chk=      8 Scr=      1
 Normal termination of Gaussian 09 at Wed Apr 10 13:42:50 2024.
