 Entering Gaussian System, Link 0=g09
 Input=Pt9-Pt4-Pt-Pt-Pt4-Pt9.gjf
 Output=Pt9-Pt4-Pt-Pt-Pt4-Pt9.log
 AtFile(1): Pt9-Pt4-Pt-Pt-Pt4-Pt9.gbssmall
            Pt 0
            S      3        1.00
                   0.4024                   -0.9969
                   0.2704                    1.0610
                   0.0612                    0.8117
            P      3        1.00
                   0.6751                   -0.0427
                   0.0966                    0.4789
                   0.0288                    0.6301
            D      4        1.00
                   1.2792                    0.4614
                   0.4890                    0.4587
                   0.1905                    0.2346
                   0.0747                    0.0500
            ****
            
            Pt 0
            ECP10CE   4   68
            L=4 COMPONENT
              6
                2    0.912100   -0.974928   -0.033425
                2    2.165400   -9.496993    0.062504
                2    6.065800  -31.972325   -0.228632
                2   15.520800 -115.023093    0.514353
                2   52.946400 -275.538914    0.649005
                1  160.880900  -50.802780    2.082631
            L=0 COMPONENT
              8
                2    1.143300  -80.754021
                2    1.324800  255.402430
                2    1.724000 -314.580845
                2    2.410600  297.734940
                2    3.499700 -197.639338
                2    5.130000  146.508398
                1   12.909200   48.660684
                0   34.226600    4.064912
            L=1 COMPONENT
              8
                2    0.851600  -17.786717   11.386573
                2    0.975100   96.914003  -14.233798
                2    1.266200 -146.014526   -5.864301
                2    1.805100  147.231947   21.055626
                2    2.705000  -89.586180  -19.785536
                2    4.244800   85.018012    9.614229
                1   10.743900   50.108768   -0.541645
                0   31.214600    5.642663    0.076829
            L=2 COMPONENT
              8
                2    0.282000   -0.118513   -0.012992
                2    1.267200  -17.328950    0.606279
                2    1.569200   49.303392   -1.314369
                2    2.301900 -115.680268   -0.021552
                2    3.293600  226.664570    7.154425
                2    4.609100 -154.830769   -9.172213
                1    7.736500   59.639100    0.461982
                0   36.100000    6.811202   -0.065185
            L=3 COMPONENT
              8
                2    0.321300  -28.150095    0.083262
                2    0.333800   31.239727   -0.085665
                2    1.391200   47.821970   -1.405815
                2    1.497800  -29.597185    1.292349
                2    3.370400   68.588371   -8.962695
                2    3.546800  -27.416642    8.539591
                1    8.283500   44.576737    0.038234
                0   23.964400    4.994919   -0.000135
 Initial command:
 /home/palacios/ANT/Gaussian/g09.D01.ifx/g09/l1.exe "/home/palacios/scratch/Gau-3902020.inp" -scrdir="/home/palacios/scratch/"
 Entering Link 1 = /home/palacios/ANT/Gaussian/g09.D01.ifx/g09/l1.exe PID=   3902021.
  
 Copyright (c) 1988,1990,1992,1993,1995,1998,2003,2009,2013,
            Gaussian, Inc.  All Rights Reserved.
  
 This is part of the Gaussian(R) 09 program.  It is based on
 the Gaussian(R) 03 system (copyright 2003, Gaussian, Inc.),
 the Gaussian(R) 98 system (copyright 1998, Gaussian, Inc.),
 the Gaussian(R) 94 system (copyright 1995, Gaussian, Inc.),
 the Gaussian 92(TM) system (copyright 1992, Gaussian, Inc.),
 the Gaussian 90(TM) system (copyright 1990, Gaussian, Inc.),
 the Gaussian 88(TM) system (copyright 1988, Gaussian, Inc.),
 the Gaussian 86(TM) system (copyright 1986, Carnegie Mellon
 University), and the Gaussian 82(TM) system (copyright 1983,
 Carnegie Mellon University). Gaussian is a federally registered
 trademark of Gaussian, Inc.
  
 This software contains proprietary and confidential information,
 including trade secrets, belonging to Gaussian, Inc.
  
 This software is provided under written license and may be
 used, copied, transmitted, or stored only in accord with that
 written license.
  
 The following legend is applicable only to US Government
 contracts under FAR:
  
                    RESTRICTED RIGHTS LEGEND
  
 Use, reproduction and disclosure by the US Government is
 subject to restrictions as set forth in subparagraphs (a)
 and (c) of the Commercial Computer Software - Restricted
 Rights clause in FAR 52.227-19.
  
 Gaussian, Inc.
 340 Quinnipiac St., Bldg. 40, Wallingford CT 06492
  
  
 ---------------------------------------------------------------
 Warning -- This program may not be used in any manner that
 competes with the business of Gaussian, Inc. or will provide
 assistance to any competitor of Gaussian, Inc.  The licensee
 of this program is prohibited from giving any competitor of
 Gaussian, Inc. access to this program.  By using this program,
 the user acknowledges that Gaussian, Inc. is engaged in the
 business of creating and licensing software in the field of
 computational chemistry and represents and warrants to the
 licensee that it is not a competitor of Gaussian, Inc. and that
 it will not use this program in any manner prohibited above.
 ---------------------------------------------------------------
  

 Cite this work as:
 Gaussian 09, Revision D.01,
 M. J. Frisch, G. W. Trucks, H. B. Schlegel, G. E. Scuseria, 
 M. A. Robb, J. R. Cheeseman, G. Scalmani, V. Barone, B. Mennucci, 
 G. A. Petersson, H. Nakatsuji, M. Caricato, X. Li, H. P. Hratchian, 
 A. F. Izmaylov, J. Bloino, G. Zheng, J. L. Sonnenberg, M. Hada, 
 M. Ehara, K. Toyota, R. Fukuda, J. Hasegawa, M. Ishida, T. Nakajima, 
 Y. Honda, O. Kitao, H. Nakai, T. Vreven, J. A. Montgomery, Jr., 
 J. E. Peralta, F. Ogliaro, M. Bearpark, J. J. Heyd, E. Brothers, 
 K. N. Kudin, V. N. Staroverov, T. Keith, R. Kobayashi, J. Normand, 
 K. Raghavachari, A. Rendell, J. C. Burant, S. S. Iyengar, J. Tomasi, 
 M. Cossi, N. Rega, J. M. Millam, M. Klene, J. E. Knox, J. B. Cross, 
 V. Bakken, C. Adamo, J. Jaramillo, R. Gomperts, R. E. Stratmann, 
 O. Yazyev, A. J. Austin, R. Cammi, C. Pomelli, J. W. Ochterski, 
 R. L. Martin, K. Morokuma, V. G. Zakrzewski, G. A. Voth, 
 P. Salvador, J. J. Dannenberg, S. Dapprich, A. D. Daniels, 
 O. Farkas, J. B. Foresman, J. V. Ortiz, J. Cioslowski, 
 and D. J. Fox, Gaussian, Inc., Wallingford CT, 2013.
 
 ******************************************
 Gaussian 09:  ES64L-G09RevD.01 24-Apr-2013
                10-Apr-2024 
 ******************************************
 %Subst L502 ../../bin
 %Subst L101 ../../bin
 %nproc=8
 Will use up to    8 processors via shared memory.
 ------------------------------------------------------------
 #p LSDA/gen pseudo=read scf=(conver=5,dsymm,maxcyc=300) test
 ------------------------------------------------------------
 1/38=1/1;
 2/12=2,17=6,18=5,40=1/2;
 3/5=7,11=2,16=1,17=8,25=1,30=1,74=205/1,2,3;
 4//1;
 5/5=2,6=5,7=300,17=200,38=5/2;
 6/7=2,8=2,9=2,10=2,28=1/1;
 99/5=1,9=1/99;
 Leave Link    1 at Wed Apr 10 14:36:52 2024, MaxMem=           0 cpu:         0.0
 (Enter ../../bin/l101.exe)
 ---------------------
 Pt9-Pt4-Pt-Pt-Pt4-Pt9
 ---------------------
 Symbolic Z-matrix:
 Charge =  0 Multiplicity = 1
 78                   -1.96      1.96      9.46 
 78                   -3.92      0.        9.46 
 78                    1.96      1.96      9.46 
 78                    0.        0.        9.46 
 78                   -1.96     -1.96      9.46 
 78                    0.        3.92      9.46 
 78                    3.92      0.        9.46 
 78                    1.96     -1.96      9.46 
 78                    0.       -3.92      9.46 
 78                    0.        1.96      7.5 
 78                   -1.96      0.        7.5 
 78                    1.96      0.        7.5 
 78                    0.       -1.96      7.5 
 78                    0.        0.1       5.54 
 78                    0.        0.        3.08 
 78                    0.        1.96      1.12 
 78                   -1.96      0.        1.12 
 78                    1.96      0.        1.12 
 78                    0.       -1.96      1.12 
 78                    0.        3.92     -0.84 
 78                   -1.96      1.96     -0.84 
 78                   -3.92      0.       -0.84 
 78                    1.96      1.96     -0.84 
 78                    0.       -3.92     -0.84 
 78                    0.        0.       -0.84 
 78                   -1.96     -1.96     -0.84 
 78                    3.92      0.       -0.84 
 78                    1.96     -1.96     -0.84 
 
 NAtoms=     28 NQM=       28 NQMF=       0 NMMI=      0 NMMIF=      0
                NMic=       0 NMicF=      0.
                    Isotopes and Nuclear Properties:
 (Nuclear quadrupole moments (NQMom) in fm**2, nuclear magnetic moments (NMagM)
  in nuclear magnetons)

  Atom         1           2           3           4           5           6           7           8           9          10
 IAtWgt=         195         195         195         195         195         195         195         195         195         195
 AtmWgt= 194.9648000 194.9648000 194.9648000 194.9648000 194.9648000 194.9648000 194.9648000 194.9648000 194.9648000 194.9648000
 NucSpn=           1           1           1           1           1           1           1           1           1           1
 AtZEff=   0.0000000   0.0000000   0.0000000   0.0000000   0.0000000   0.0000000   0.0000000   0.0000000   0.0000000   0.0000000
 NQMom=    0.0000000   0.0000000   0.0000000   0.0000000   0.0000000   0.0000000   0.0000000   0.0000000   0.0000000   0.0000000
 NMagM=    0.6095000   0.6095000   0.6095000   0.6095000   0.6095000   0.6095000   0.6095000   0.6095000   0.6095000   0.6095000
 AtZNuc=  78.0000000  78.0000000  78.0000000  78.0000000  78.0000000  78.0000000  78.0000000  78.0000000  78.0000000  78.0000000

  Atom        11          12          13          14          15          16          17          18          19          20
 IAtWgt=         195         195         195         195         195         195         195         195         195         195
 AtmWgt= 194.9648000 194.9648000 194.9648000 194.9648000 194.9648000 194.9648000 194.9648000 194.9648000 194.9648000 194.9648000
 NucSpn=           1           1           1           1           1           1           1           1           1           1
 AtZEff=   0.0000000   0.0000000   0.0000000   0.0000000   0.0000000   0.0000000   0.0000000   0.0000000   0.0000000   0.0000000
 NQMom=    0.0000000   0.0000000   0.0000000   0.0000000   0.0000000   0.0000000   0.0000000   0.0000000   0.0000000   0.0000000
 NMagM=    0.6095000   0.6095000   0.6095000   0.6095000   0.6095000   0.6095000   0.6095000   0.6095000   0.6095000   0.6095000
 AtZNuc=  78.0000000  78.0000000  78.0000000  78.0000000  78.0000000  78.0000000  78.0000000  78.0000000  78.0000000  78.0000000

  Atom        21          22          23          24          25          26          27          28
 IAtWgt=         195         195         195         195         195         195         195         195
 AtmWgt= 194.9648000 194.9648000 194.9648000 194.9648000 194.9648000 194.9648000 194.9648000 194.9648000
 NucSpn=           1           1           1           1           1           1           1           1
 AtZEff=   0.0000000   0.0000000   0.0000000   0.0000000   0.0000000   0.0000000   0.0000000   0.0000000
 NQMom=    0.0000000   0.0000000   0.0000000   0.0000000   0.0000000   0.0000000   0.0000000   0.0000000
 NMagM=    0.6095000   0.6095000   0.6095000   0.6095000   0.6095000   0.6095000   0.6095000   0.6095000
 AtZNuc=  78.0000000  78.0000000  78.0000000  78.0000000  78.0000000  78.0000000  78.0000000  78.0000000
 Leave Link  101 at Wed Apr 10 14:36:53 2024, MaxMem=    33554432 cpu:         0.0
 (Enter /home/palacios/ANT/Gaussian/g09.D01.ifx/g09/l202.exe)
                          Input orientation:                          
 ---------------------------------------------------------------------
 Center     Atomic      Atomic             Coordinates (Angstroms)
 Number     Number       Type             X           Y           Z
 ---------------------------------------------------------------------
      1         78           0       -1.960000    1.960000    9.460000
      2         78           0       -3.920000    0.000000    9.460000
      3         78           0        1.960000    1.960000    9.460000
      4         78           0        0.000000    0.000000    9.460000
      5         78           0       -1.960000   -1.960000    9.460000
      6         78           0        0.000000    3.920000    9.460000
      7         78           0        3.920000    0.000000    9.460000
      8         78           0        1.960000   -1.960000    9.460000
      9         78           0        0.000000   -3.920000    9.460000
     10         78           0        0.000000    1.960000    7.500000
     11         78           0       -1.960000    0.000000    7.500000
     12         78           0        1.960000    0.000000    7.500000
     13         78           0        0.000000   -1.960000    7.500000
     14         78           0        0.000000    0.100000    5.540000
     15         78           0        0.000000    0.000000    3.080000
     16         78           0        0.000000    1.960000    1.120000
     17         78           0       -1.960000    0.000000    1.120000
     18         78           0        1.960000    0.000000    1.120000
     19         78           0        0.000000   -1.960000    1.120000
     20         78           0        0.000000    3.920000   -0.840000
     21         78           0       -1.960000    1.960000   -0.840000
     22         78           0       -3.920000    0.000000   -0.840000
     23         78           0        1.960000    1.960000   -0.840000
     24         78           0        0.000000   -3.920000   -0.840000
     25         78           0        0.000000    0.000000   -0.840000
     26         78           0       -1.960000   -1.960000   -0.840000
     27         78           0        3.920000    0.000000   -0.840000
     28         78           0        1.960000   -1.960000   -0.840000
 ---------------------------------------------------------------------
                    Distance matrix (angstroms):
                    1          2          3          4          5
     1  Pt   0.000000
     2  Pt   2.771859   0.000000
     3  Pt   3.920000   6.198064   0.000000
     4  Pt   2.771859   3.920000   2.771859   0.000000
     5  Pt   3.920000   2.771859   5.543717   2.771859   0.000000
     6  Pt   2.771859   5.543717   2.771859   3.920000   6.198064
     7  Pt   6.198064   7.840000   2.771859   3.920000   6.198064
     8  Pt   5.543717   6.198064   3.920000   2.771859   3.920000
     9  Pt   6.198064   5.543717   6.198064   3.920000   2.771859
    10  Pt   2.771859   4.801000   2.771859   2.771859   4.801000
    11  Pt   2.771859   2.771859   4.801000   2.771859   2.771859
    12  Pt   4.801000   6.198064   2.771859   2.771859   4.801000
    13  Pt   4.801000   4.801000   4.801000   2.771859   2.771859
    14  Pt   4.761050   5.544619   4.761050   3.921275   4.842685
    15  Pt   6.956120   7.488044   6.956120   6.380000   6.956120
    16  Pt   8.567217   9.421444   8.567217   8.567217   9.421444
    17  Pt   8.567217   8.567217   9.421444   8.567217   8.567217
    18  Pt   9.421444  10.204411   8.567217   8.567217   9.421444
    19  Pt   9.421444   9.421444   9.421444   8.567217   8.567217
    20  Pt  10.666452  11.697128  10.666452  11.020726  12.021065
    21  Pt  10.300000  10.666452  11.020726  10.666452  11.020726
    22  Pt  10.666452  10.300000  12.021065  11.020726  10.666452
    23  Pt  11.020726  12.021065  10.300000  10.666452  11.697128
    24  Pt  12.021065  11.697128  12.021065  11.020726  10.666452
    25  Pt  10.666452  11.020726  10.666452  10.300000  10.666452
    26  Pt  11.020726  10.666452  11.697128  10.666452  10.300000
    27  Pt  12.021065  12.944327  10.666452  11.020726  12.021065
    28  Pt  11.697128  12.021065  11.020726  10.666452  11.020726
                    6          7          8          9         10
     6  Pt   0.000000
     7  Pt   5.543717   0.000000
     8  Pt   6.198064   2.771859   0.000000
     9  Pt   7.840000   5.543717   2.771859   0.000000
    10  Pt   2.771859   4.801000   4.801000   6.198064   0.000000
    11  Pt   4.801000   6.198064   4.801000   4.801000   2.771859
    12  Pt   4.801000   2.771859   2.771859   4.801000   2.771859
    13  Pt   6.198064   4.801000   2.771859   2.771859   3.920000
    14  Pt   5.473463   5.544619   4.842685   5.614873   2.702073
    15  Pt   7.488044   7.488044   6.956120   7.488044   4.835080
    16  Pt   8.567217   9.421444   9.421444  10.204411   6.380000
    17  Pt   9.421444  10.204411   9.421444   9.421444   6.956120
    18  Pt   9.421444   8.567217   8.567217   9.421444   6.956120
    19  Pt  10.204411   9.421444   8.567217   8.567217   7.488044
    20  Pt  10.300000  11.697128  12.021065  12.944327   8.567217
    21  Pt  10.666452  12.021065  11.697128  12.021065   8.567217
    22  Pt  11.697128  12.944327  12.021065  11.697128   9.421444
    23  Pt  10.666452  10.666452  11.020726  12.021065   8.567217
    24  Pt  12.944327  11.697128  10.666452  10.300000  10.204411
    25  Pt  11.020726  11.020726  10.666452  11.020726   8.567217
    26  Pt  12.021065  12.021065  11.020726  10.666452   9.421444
    27  Pt  11.697128  10.300000  10.666452  11.697128   9.421444
    28  Pt  12.021065  10.666452  10.300000  10.666452   9.421444
                   11         12         13         14         15
    11  Pt   0.000000
    12  Pt   3.920000   0.000000
    13  Pt   2.771859   2.771859   0.000000
    14  Pt   2.773662   2.773662   2.843449   0.000000
    15  Pt   4.835080   4.835080   4.835080   2.462032   0.000000
    16  Pt   6.956120   6.956120   7.488044   4.795414   2.771859
    17  Pt   6.380000   7.488044   6.956120   4.836114   2.771859
    18  Pt   7.488044   6.380000   6.956120   4.836114   2.771859
    19  Pt   6.956120   6.956120   6.380000   4.876474   2.771859
    20  Pt   9.421444   9.421444  10.204411   7.436182   5.543717
    21  Pt   8.567217   9.421444   9.421444   6.928607   4.801000
    22  Pt   8.567217  10.204411   9.421444   7.488712   5.543717
    23  Pt   9.421444   8.567217   9.421444   6.928607   4.801000
    24  Pt   9.421444   9.421444   8.567217   7.540875   5.543717
    25  Pt   8.567217   8.567217   8.567217   6.380784   3.920000
    26  Pt   8.567217   9.421444   8.567217   6.984955   4.801000
    27  Pt  10.204411   8.567217   9.421444   7.488712   5.543717
    28  Pt   9.421444   8.567217   8.567217   6.984955   4.801000
                   16         17         18         19         20
    16  Pt   0.000000
    17  Pt   2.771859   0.000000
    18  Pt   2.771859   3.920000   0.000000
    19  Pt   3.920000   2.771859   2.771859   0.000000
    20  Pt   2.771859   4.801000   4.801000   6.198064   0.000000
    21  Pt   2.771859   2.771859   4.801000   4.801000   2.771859
    22  Pt   4.801000   2.771859   6.198064   4.801000   5.543717
    23  Pt   2.771859   4.801000   2.771859   4.801000   2.771859
    24  Pt   6.198064   4.801000   4.801000   2.771859   7.840000
    25  Pt   2.771859   2.771859   2.771859   2.771859   3.920000
    26  Pt   4.801000   2.771859   4.801000   2.771859   6.198064
    27  Pt   4.801000   6.198064   2.771859   4.801000   5.543717
    28  Pt   4.801000   4.801000   2.771859   2.771859   6.198064
                   21         22         23         24         25
    21  Pt   0.000000
    22  Pt   2.771859   0.000000
    23  Pt   3.920000   6.198064   0.000000
    24  Pt   6.198064   5.543717   6.198064   0.000000
    25  Pt   2.771859   3.920000   2.771859   3.920000   0.000000
    26  Pt   3.920000   2.771859   5.543717   2.771859   2.771859
    27  Pt   6.198064   7.840000   2.771859   5.543717   3.920000
    28  Pt   5.543717   6.198064   3.920000   2.771859   2.771859
                   26         27         28
    26  Pt   0.000000
    27  Pt   6.198064   0.000000
    28  Pt   3.920000   2.771859   0.000000
 Stoichiometry    Pt28
 Framework group  CS[SG(Pt12),X(Pt16)]
 Deg. of freedom    45
 Full point group                 CS      NOp   2
 Largest Abelian subgroup         CS      NOp   2
 Largest concise Abelian subgroup CS      NOp   2
                         Standard orientation:                         
 ---------------------------------------------------------------------
 Center     Atomic      Atomic             Coordinates (Angstroms)
 Number     Number       Type             X           Y           Z
 ---------------------------------------------------------------------
      1         78           0       -1.956429    5.150000    1.960000
      2         78           0        0.003571    5.150000    3.920000
      3         78           0       -1.956429    5.150000   -1.960000
      4         78           0        0.003571    5.150000    0.000000
      5         78           0        1.963571    5.150000    1.960000
      6         78           0       -3.916429    5.150000    0.000000
      7         78           0        0.003571    5.150000   -3.920000
      8         78           0        1.963571    5.150000   -1.960000
      9         78           0        3.923571    5.150000    0.000000
     10         78           0       -1.956429    3.190000    0.000000
     11         78           0        0.003571    3.190000    1.960000
     12         78           0        0.003571    3.190000   -1.960000
     13         78           0        1.963571    3.190000    0.000000
     14         78           0       -0.096429    1.230000    0.000000
     15         78           0        0.003571   -1.230000    0.000000
     16         78           0       -1.956429   -3.190000    0.000000
     17         78           0        0.003571   -3.190000    1.960000
     18         78           0        0.003571   -3.190000   -1.960000
     19         78           0        1.963571   -3.190000    0.000000
     20         78           0       -3.916429   -5.150000    0.000000
     21         78           0       -1.956429   -5.150000    1.960000
     22         78           0        0.003571   -5.150000    3.920000
     23         78           0       -1.956429   -5.150000   -1.960000
     24         78           0        3.923571   -5.150000    0.000000
     25         78           0        0.003571   -5.150000    0.000000
     26         78           0        1.963571   -5.150000    1.960000
     27         78           0        0.003571   -5.150000   -3.920000
     28         78           0        1.963571   -5.150000   -1.960000
 ---------------------------------------------------------------------
 Rotational constants (GHZ):      0.0120487      0.0038723      0.0038723
 Leave Link  202 at Wed Apr 10 14:36:53 2024, MaxMem=    33554432 cpu:         0.0
 (Enter /home/palacios/ANT/Gaussian/g09.D01.ifx/g09/l301.exe)
 General basis read from cards:  (5D, 7F)
 Centers:       1      2      3      4      5      6      7      8      9     10
 Centers:      11     12     13     14     15     16     17     18     19     20
 Centers:      21     22     23     24     25     26     27     28
 S 3 1.00
     Exponent=  4.0240000000D-01 Coefficients= -9.9690000000D-01
     Exponent=  2.7040000000D-01 Coefficients=  1.0610000000D+00
     Exponent=  6.1200000000D-02 Coefficients=  8.1170000000D-01
 P 3 1.00
     Exponent=  6.7510000000D-01 Coefficients= -4.2700000000D-02
     Exponent=  9.6600000000D-02 Coefficients=  4.7890000000D-01
     Exponent=  2.8800000000D-02 Coefficients=  6.3010000000D-01
 D 4 1.00
     Exponent=  1.2792000000D+00 Coefficients=  4.6140000000D-01
     Exponent=  4.8900000000D-01 Coefficients=  4.5870000000D-01
     Exponent=  1.9050000000D-01 Coefficients=  2.3460000000D-01
     Exponent=  7.4700000000D-02 Coefficients=  5.0000000000D-02
 ****
 ======================================================================================================
                                       Pseudopotential Parameters
 ======================================================================================================
  Center     Atomic      Valence      Angular      Power
  Number     Number     Electrons     Momentum     of R      Exponent        Coefficient   SO-Coeffient
 ======================================================================================================
    1         78           10
                                      G and up 
                                                     2        0.9121000       -0.97492800   -0.03342500
                                                     2        2.1654000       -9.49699300    0.06250400
                                                     2        6.0658000      -31.97232500   -0.22863200
                                                     2       15.5208000     -115.02309300    0.51435300
                                                     2       52.9464000     -275.53891400    0.64900500
                                                     1      160.8809000      -50.80278000    2.08263100
                                      S - G
                                                     2        1.1433000      -80.75402100    0.00000000
                                                     2        1.3248000      255.40243000    0.00000000
                                                     2        1.7240000     -314.58084500    0.00000000
                                                     2        2.4106000      297.73494000    0.00000000
                                                     2        3.4997000     -197.63933800    0.00000000
                                                     2        5.1300000      146.50839800    0.00000000
                                                     1       12.9092000       48.66068400    0.00000000
                                                     0       34.2266000        4.06491200    0.00000000
                                      P - G
                                                     2        0.8516000      -17.78671700   11.38657300
                                                     2        0.9751000       96.91400300  -14.23379800
                                                     2        1.2662000     -146.01452600   -5.86430100
                                                     2        1.8051000      147.23194700   21.05562600
                                                     2        2.7050000      -89.58618000  -19.78553600
                                                     2        4.2448000       85.01801200    9.61422900
                                                     1       10.7439000       50.10876800   -0.54164500
                                                     0       31.2146000        5.64266300    0.07682900
                                      D - G
                                                     2        0.2820000       -0.11851300   -0.01299200
                                                     2        1.2672000      -17.32895000    0.60627900
                                                     2        1.5692000       49.30339200   -1.31436900
                                                     2        2.3019000     -115.68026800   -0.02155200
                                                     2        3.2936000      226.66457000    7.15442500
                                                     2        4.6091000     -154.83076900   -9.17221300
                                                     1        7.7365000       59.63910000    0.46198200
                                                     0       36.1000000        6.81120200   -0.06518500
                                      F - G
                                                     2        0.3213000      -28.15009500    0.08326200
                                                     2        0.3338000       31.23972700   -0.08566500
                                                     2        1.3912000       47.82197000   -1.40581500
                                                     2        1.4978000      -29.59718500    1.29234900
                                                     2        3.3704000       68.58837100   -8.96269500
                                                     2        3.5468000      -27.41664200    8.53959100
                                                     1        8.2835000       44.57673700    0.03823400
                                                     0       23.9644000        4.99491900   -0.00013500
    2         78           10
                                      G and up 
                                                     2        0.9121000       -0.97492800   -0.03342500
                                                     2        2.1654000       -9.49699300    0.06250400
                                                     2        6.0658000      -31.97232500   -0.22863200
                                                     2       15.5208000     -115.02309300    0.51435300
                                                     2       52.9464000     -275.53891400    0.64900500
                                                     1      160.8809000      -50.80278000    2.08263100
                                      S - G
                                                     2        1.1433000      -80.75402100    0.00000000
                                                     2        1.3248000      255.40243000    0.00000000
                                                     2        1.7240000     -314.58084500    0.00000000
                                                     2        2.4106000      297.73494000    0.00000000
                                                     2        3.4997000     -197.63933800    0.00000000
                                                     2        5.1300000      146.50839800    0.00000000
                                                     1       12.9092000       48.66068400    0.00000000
                                                     0       34.2266000        4.06491200    0.00000000
                                      P - G
                                                     2        0.8516000      -17.78671700   11.38657300
                                                     2        0.9751000       96.91400300  -14.23379800
                                                     2        1.2662000     -146.01452600   -5.86430100
                                                     2        1.8051000      147.23194700   21.05562600
                                                     2        2.7050000      -89.58618000  -19.78553600
                                                     2        4.2448000       85.01801200    9.61422900
                                                     1       10.7439000       50.10876800   -0.54164500
                                                     0       31.2146000        5.64266300    0.07682900
                                      D - G
                                                     2        0.2820000       -0.11851300   -0.01299200
                                                     2        1.2672000      -17.32895000    0.60627900
                                                     2        1.5692000       49.30339200   -1.31436900
                                                     2        2.3019000     -115.68026800   -0.02155200
                                                     2        3.2936000      226.66457000    7.15442500
                                                     2        4.6091000     -154.83076900   -9.17221300
                                                     1        7.7365000       59.63910000    0.46198200
                                                     0       36.1000000        6.81120200   -0.06518500
                                      F - G
                                                     2        0.3213000      -28.15009500    0.08326200
                                                     2        0.3338000       31.23972700   -0.08566500
                                                     2        1.3912000       47.82197000   -1.40581500
                                                     2        1.4978000      -29.59718500    1.29234900
                                                     2        3.3704000       68.58837100   -8.96269500
                                                     2        3.5468000      -27.41664200    8.53959100
                                                     1        8.2835000       44.57673700    0.03823400
                                                     0       23.9644000        4.99491900   -0.00013500
    3         78           10
                                      G and up 
                                                     2        0.9121000       -0.97492800   -0.03342500
                                                     2        2.1654000       -9.49699300    0.06250400
                                                     2        6.0658000      -31.97232500   -0.22863200
                                                     2       15.5208000     -115.02309300    0.51435300
                                                     2       52.9464000     -275.53891400    0.64900500
                                                     1      160.8809000      -50.80278000    2.08263100
                                      S - G
                                                     2        1.1433000      -80.75402100    0.00000000
                                                     2        1.3248000      255.40243000    0.00000000
                                                     2        1.7240000     -314.58084500    0.00000000
                                                     2        2.4106000      297.73494000    0.00000000
                                                     2        3.4997000     -197.63933800    0.00000000
                                                     2        5.1300000      146.50839800    0.00000000
                                                     1       12.9092000       48.66068400    0.00000000
                                                     0       34.2266000        4.06491200    0.00000000
                                      P - G
                                                     2        0.8516000      -17.78671700   11.38657300
                                                     2        0.9751000       96.91400300  -14.23379800
                                                     2        1.2662000     -146.01452600   -5.86430100
                                                     2        1.8051000      147.23194700   21.05562600
                                                     2        2.7050000      -89.58618000  -19.78553600
                                                     2        4.2448000       85.01801200    9.61422900
                                                     1       10.7439000       50.10876800   -0.54164500
                                                     0       31.2146000        5.64266300    0.07682900
                                      D - G
                                                     2        0.2820000       -0.11851300   -0.01299200
                                                     2        1.2672000      -17.32895000    0.60627900
                                                     2        1.5692000       49.30339200   -1.31436900
                                                     2        2.3019000     -115.68026800   -0.02155200
                                                     2        3.2936000      226.66457000    7.15442500
                                                     2        4.6091000     -154.83076900   -9.17221300
                                                     1        7.7365000       59.63910000    0.46198200
                                                     0       36.1000000        6.81120200   -0.06518500
                                      F - G
                                                     2        0.3213000      -28.15009500    0.08326200
                                                     2        0.3338000       31.23972700   -0.08566500
                                                     2        1.3912000       47.82197000   -1.40581500
                                                     2        1.4978000      -29.59718500    1.29234900
                                                     2        3.3704000       68.58837100   -8.96269500
                                                     2        3.5468000      -27.41664200    8.53959100
                                                     1        8.2835000       44.57673700    0.03823400
                                                     0       23.9644000        4.99491900   -0.00013500
    4         78           10
                                      G and up 
                                                     2        0.9121000       -0.97492800   -0.03342500
                                                     2        2.1654000       -9.49699300    0.06250400
                                                     2        6.0658000      -31.97232500   -0.22863200
                                                     2       15.5208000     -115.02309300    0.51435300
                                                     2       52.9464000     -275.53891400    0.64900500
                                                     1      160.8809000      -50.80278000    2.08263100
                                      S - G
                                                     2        1.1433000      -80.75402100    0.00000000
                                                     2        1.3248000      255.40243000    0.00000000
                                                     2        1.7240000     -314.58084500    0.00000000
                                                     2        2.4106000      297.73494000    0.00000000
                                                     2        3.4997000     -197.63933800    0.00000000
                                                     2        5.1300000      146.50839800    0.00000000
                                                     1       12.9092000       48.66068400    0.00000000
                                                     0       34.2266000        4.06491200    0.00000000
                                      P - G
                                                     2        0.8516000      -17.78671700   11.38657300
                                                     2        0.9751000       96.91400300  -14.23379800
                                                     2        1.2662000     -146.01452600   -5.86430100
                                                     2        1.8051000      147.23194700   21.05562600
                                                     2        2.7050000      -89.58618000  -19.78553600
                                                     2        4.2448000       85.01801200    9.61422900
                                                     1       10.7439000       50.10876800   -0.54164500
                                                     0       31.2146000        5.64266300    0.07682900
                                      D - G
                                                     2        0.2820000       -0.11851300   -0.01299200
                                                     2        1.2672000      -17.32895000    0.60627900
                                                     2        1.5692000       49.30339200   -1.31436900
                                                     2        2.3019000     -115.68026800   -0.02155200
                                                     2        3.2936000      226.66457000    7.15442500
                                                     2        4.6091000     -154.83076900   -9.17221300
                                                     1        7.7365000       59.63910000    0.46198200
                                                     0       36.1000000        6.81120200   -0.06518500
                                      F - G
                                                     2        0.3213000      -28.15009500    0.08326200
                                                     2        0.3338000       31.23972700   -0.08566500
                                                     2        1.3912000       47.82197000   -1.40581500
                                                     2        1.4978000      -29.59718500    1.29234900
                                                     2        3.3704000       68.58837100   -8.96269500
                                                     2        3.5468000      -27.41664200    8.53959100
                                                     1        8.2835000       44.57673700    0.03823400
                                                     0       23.9644000        4.99491900   -0.00013500
    5         78           10
                                      G and up 
                                                     2        0.9121000       -0.97492800   -0.03342500
                                                     2        2.1654000       -9.49699300    0.06250400
                                                     2        6.0658000      -31.97232500   -0.22863200
                                                     2       15.5208000     -115.02309300    0.51435300
                                                     2       52.9464000     -275.53891400    0.64900500
                                                     1      160.8809000      -50.80278000    2.08263100
                                      S - G
                                                     2        1.1433000      -80.75402100    0.00000000
                                                     2        1.3248000      255.40243000    0.00000000
                                                     2        1.7240000     -314.58084500    0.00000000
                                                     2        2.4106000      297.73494000    0.00000000
                                                     2        3.4997000     -197.63933800    0.00000000
                                                     2        5.1300000      146.50839800    0.00000000
                                                     1       12.9092000       48.66068400    0.00000000
                                                     0       34.2266000        4.06491200    0.00000000
                                      P - G
                                                     2        0.8516000      -17.78671700   11.38657300
                                                     2        0.9751000       96.91400300  -14.23379800
                                                     2        1.2662000     -146.01452600   -5.86430100
                                                     2        1.8051000      147.23194700   21.05562600
                                                     2        2.7050000      -89.58618000  -19.78553600
                                                     2        4.2448000       85.01801200    9.61422900
                                                     1       10.7439000       50.10876800   -0.54164500
                                                     0       31.2146000        5.64266300    0.07682900
                                      D - G
                                                     2        0.2820000       -0.11851300   -0.01299200
                                                     2        1.2672000      -17.32895000    0.60627900
                                                     2        1.5692000       49.30339200   -1.31436900
                                                     2        2.3019000     -115.68026800   -0.02155200
                                                     2        3.2936000      226.66457000    7.15442500
                                                     2        4.6091000     -154.83076900   -9.17221300
                                                     1        7.7365000       59.63910000    0.46198200
                                                     0       36.1000000        6.81120200   -0.06518500
                                      F - G
                                                     2        0.3213000      -28.15009500    0.08326200
                                                     2        0.3338000       31.23972700   -0.08566500
                                                     2        1.3912000       47.82197000   -1.40581500
                                                     2        1.4978000      -29.59718500    1.29234900
                                                     2        3.3704000       68.58837100   -8.96269500
                                                     2        3.5468000      -27.41664200    8.53959100
                                                     1        8.2835000       44.57673700    0.03823400
                                                     0       23.9644000        4.99491900   -0.00013500
    6         78           10
                                      G and up 
                                                     2        0.9121000       -0.97492800   -0.03342500
                                                     2        2.1654000       -9.49699300    0.06250400
                                                     2        6.0658000      -31.97232500   -0.22863200
                                                     2       15.5208000     -115.02309300    0.51435300
                                                     2       52.9464000     -275.53891400    0.64900500
                                                     1      160.8809000      -50.80278000    2.08263100
                                      S - G
                                                     2        1.1433000      -80.75402100    0.00000000
                                                     2        1.3248000      255.40243000    0.00000000
                                                     2        1.7240000     -314.58084500    0.00000000
                                                     2        2.4106000      297.73494000    0.00000000
                                                     2        3.4997000     -197.63933800    0.00000000
                                                     2        5.1300000      146.50839800    0.00000000
                                                     1       12.9092000       48.66068400    0.00000000
                                                     0       34.2266000        4.06491200    0.00000000
                                      P - G
                                                     2        0.8516000      -17.78671700   11.38657300
                                                     2        0.9751000       96.91400300  -14.23379800
                                                     2        1.2662000     -146.01452600   -5.86430100
                                                     2        1.8051000      147.23194700   21.05562600
                                                     2        2.7050000      -89.58618000  -19.78553600
                                                     2        4.2448000       85.01801200    9.61422900
                                                     1       10.7439000       50.10876800   -0.54164500
                                                     0       31.2146000        5.64266300    0.07682900
                                      D - G
                                                     2        0.2820000       -0.11851300   -0.01299200
                                                     2        1.2672000      -17.32895000    0.60627900
                                                     2        1.5692000       49.30339200   -1.31436900
                                                     2        2.3019000     -115.68026800   -0.02155200
                                                     2        3.2936000      226.66457000    7.15442500
                                                     2        4.6091000     -154.83076900   -9.17221300
                                                     1        7.7365000       59.63910000    0.46198200
                                                     0       36.1000000        6.81120200   -0.06518500
                                      F - G
                                                     2        0.3213000      -28.15009500    0.08326200
                                                     2        0.3338000       31.23972700   -0.08566500
                                                     2        1.3912000       47.82197000   -1.40581500
                                                     2        1.4978000      -29.59718500    1.29234900
                                                     2        3.3704000       68.58837100   -8.96269500
                                                     2        3.5468000      -27.41664200    8.53959100
                                                     1        8.2835000       44.57673700    0.03823400
                                                     0       23.9644000        4.99491900   -0.00013500
    7         78           10
                                      G and up 
                                                     2        0.9121000       -0.97492800   -0.03342500
                                                     2        2.1654000       -9.49699300    0.06250400
                                                     2        6.0658000      -31.97232500   -0.22863200
                                                     2       15.5208000     -115.02309300    0.51435300
                                                     2       52.9464000     -275.53891400    0.64900500
                                                     1      160.8809000      -50.80278000    2.08263100
                                      S - G
                                                     2        1.1433000      -80.75402100    0.00000000
                                                     2        1.3248000      255.40243000    0.00000000
                                                     2        1.7240000     -314.58084500    0.00000000
                                                     2        2.4106000      297.73494000    0.00000000
                                                     2        3.4997000     -197.63933800    0.00000000
                                                     2        5.1300000      146.50839800    0.00000000
                                                     1       12.9092000       48.66068400    0.00000000
                                                     0       34.2266000        4.06491200    0.00000000
                                      P - G
                                                     2        0.8516000      -17.78671700   11.38657300
                                                     2        0.9751000       96.91400300  -14.23379800
                                                     2        1.2662000     -146.01452600   -5.86430100
                                                     2        1.8051000      147.23194700   21.05562600
                                                     2        2.7050000      -89.58618000  -19.78553600
                                                     2        4.2448000       85.01801200    9.61422900
                                                     1       10.7439000       50.10876800   -0.54164500
                                                     0       31.2146000        5.64266300    0.07682900
                                      D - G
                                                     2        0.2820000       -0.11851300   -0.01299200
                                                     2        1.2672000      -17.32895000    0.60627900
                                                     2        1.5692000       49.30339200   -1.31436900
                                                     2        2.3019000     -115.68026800   -0.02155200
                                                     2        3.2936000      226.66457000    7.15442500
                                                     2        4.6091000     -154.83076900   -9.17221300
                                                     1        7.7365000       59.63910000    0.46198200
                                                     0       36.1000000        6.81120200   -0.06518500
                                      F - G
                                                     2        0.3213000      -28.15009500    0.08326200
                                                     2        0.3338000       31.23972700   -0.08566500
                                                     2        1.3912000       47.82197000   -1.40581500
                                                     2        1.4978000      -29.59718500    1.29234900
                                                     2        3.3704000       68.58837100   -8.96269500
                                                     2        3.5468000      -27.41664200    8.53959100
                                                     1        8.2835000       44.57673700    0.03823400
                                                     0       23.9644000        4.99491900   -0.00013500
    8         78           10
                                      G and up 
                                                     2        0.9121000       -0.97492800   -0.03342500
                                                     2        2.1654000       -9.49699300    0.06250400
                                                     2        6.0658000      -31.97232500   -0.22863200
                                                     2       15.5208000     -115.02309300    0.51435300
                                                     2       52.9464000     -275.53891400    0.64900500
                                                     1      160.8809000      -50.80278000    2.08263100
                                      S - G
                                                     2        1.1433000      -80.75402100    0.00000000
                                                     2        1.3248000      255.40243000    0.00000000
                                                     2        1.7240000     -314.58084500    0.00000000
                                                     2        2.4106000      297.73494000    0.00000000
                                                     2        3.4997000     -197.63933800    0.00000000
                                                     2        5.1300000      146.50839800    0.00000000
                                                     1       12.9092000       48.66068400    0.00000000
                                                     0       34.2266000        4.06491200    0.00000000
                                      P - G
                                                     2        0.8516000      -17.78671700   11.38657300
                                                     2        0.9751000       96.91400300  -14.23379800
                                                     2        1.2662000     -146.01452600   -5.86430100
                                                     2        1.8051000      147.23194700   21.05562600
                                                     2        2.7050000      -89.58618000  -19.78553600
                                                     2        4.2448000       85.01801200    9.61422900
                                                     1       10.7439000       50.10876800   -0.54164500
                                                     0       31.2146000        5.64266300    0.07682900
                                      D - G
                                                     2        0.2820000       -0.11851300   -0.01299200
                                                     2        1.2672000      -17.32895000    0.60627900
                                                     2        1.5692000       49.30339200   -1.31436900
                                                     2        2.3019000     -115.68026800   -0.02155200
                                                     2        3.2936000      226.66457000    7.15442500
                                                     2        4.6091000     -154.83076900   -9.17221300
                                                     1        7.7365000       59.63910000    0.46198200
                                                     0       36.1000000        6.81120200   -0.06518500
                                      F - G
                                                     2        0.3213000      -28.15009500    0.08326200
                                                     2        0.3338000       31.23972700   -0.08566500
                                                     2        1.3912000       47.82197000   -1.40581500
                                                     2        1.4978000      -29.59718500    1.29234900
                                                     2        3.3704000       68.58837100   -8.96269500
                                                     2        3.5468000      -27.41664200    8.53959100
                                                     1        8.2835000       44.57673700    0.03823400
                                                     0       23.9644000        4.99491900   -0.00013500
    9         78           10
                                      G and up 
                                                     2        0.9121000       -0.97492800   -0.03342500
                                                     2        2.1654000       -9.49699300    0.06250400
                                                     2        6.0658000      -31.97232500   -0.22863200
                                                     2       15.5208000     -115.02309300    0.51435300
                                                     2       52.9464000     -275.53891400    0.64900500
                                                     1      160.8809000      -50.80278000    2.08263100
                                      S - G
                                                     2        1.1433000      -80.75402100    0.00000000
                                                     2        1.3248000      255.40243000    0.00000000
                                                     2        1.7240000     -314.58084500    0.00000000
                                                     2        2.4106000      297.73494000    0.00000000
                                                     2        3.4997000     -197.63933800    0.00000000
                                                     2        5.1300000      146.50839800    0.00000000
                                                     1       12.9092000       48.66068400    0.00000000
                                                     0       34.2266000        4.06491200    0.00000000
                                      P - G
                                                     2        0.8516000      -17.78671700   11.38657300
                                                     2        0.9751000       96.91400300  -14.23379800
                                                     2        1.2662000     -146.01452600   -5.86430100
                                                     2        1.8051000      147.23194700   21.05562600
                                                     2        2.7050000      -89.58618000  -19.78553600
                                                     2        4.2448000       85.01801200    9.61422900
                                                     1       10.7439000       50.10876800   -0.54164500
                                                     0       31.2146000        5.64266300    0.07682900
                                      D - G
                                                     2        0.2820000       -0.11851300   -0.01299200
                                                     2        1.2672000      -17.32895000    0.60627900
                                                     2        1.5692000       49.30339200   -1.31436900
                                                     2        2.3019000     -115.68026800   -0.02155200
                                                     2        3.2936000      226.66457000    7.15442500
                                                     2        4.6091000     -154.83076900   -9.17221300
                                                     1        7.7365000       59.63910000    0.46198200
                                                     0       36.1000000        6.81120200   -0.06518500
                                      F - G
                                                     2        0.3213000      -28.15009500    0.08326200
                                                     2        0.3338000       31.23972700   -0.08566500
                                                     2        1.3912000       47.82197000   -1.40581500
                                                     2        1.4978000      -29.59718500    1.29234900
                                                     2        3.3704000       68.58837100   -8.96269500
                                                     2        3.5468000      -27.41664200    8.53959100
                                                     1        8.2835000       44.57673700    0.03823400
                                                     0       23.9644000        4.99491900   -0.00013500
   10         78           10
                                      G and up 
                                                     2        0.9121000       -0.97492800   -0.03342500
                                                     2        2.1654000       -9.49699300    0.06250400
                                                     2        6.0658000      -31.97232500   -0.22863200
                                                     2       15.5208000     -115.02309300    0.51435300
                                                     2       52.9464000     -275.53891400    0.64900500
                                                     1      160.8809000      -50.80278000    2.08263100
                                      S - G
                                                     2        1.1433000      -80.75402100    0.00000000
                                                     2        1.3248000      255.40243000    0.00000000
                                                     2        1.7240000     -314.58084500    0.00000000
                                                     2        2.4106000      297.73494000    0.00000000
                                                     2        3.4997000     -197.63933800    0.00000000
                                                     2        5.1300000      146.50839800    0.00000000
                                                     1       12.9092000       48.66068400    0.00000000
                                                     0       34.2266000        4.06491200    0.00000000
                                      P - G
                                                     2        0.8516000      -17.78671700   11.38657300
                                                     2        0.9751000       96.91400300  -14.23379800
                                                     2        1.2662000     -146.01452600   -5.86430100
                                                     2        1.8051000      147.23194700   21.05562600
                                                     2        2.7050000      -89.58618000  -19.78553600
                                                     2        4.2448000       85.01801200    9.61422900
                                                     1       10.7439000       50.10876800   -0.54164500
                                                     0       31.2146000        5.64266300    0.07682900
                                      D - G
                                                     2        0.2820000       -0.11851300   -0.01299200
                                                     2        1.2672000      -17.32895000    0.60627900
                                                     2        1.5692000       49.30339200   -1.31436900
                                                     2        2.3019000     -115.68026800   -0.02155200
                                                     2        3.2936000      226.66457000    7.15442500
                                                     2        4.6091000     -154.83076900   -9.17221300
                                                     1        7.7365000       59.63910000    0.46198200
                                                     0       36.1000000        6.81120200   -0.06518500
                                      F - G
                                                     2        0.3213000      -28.15009500    0.08326200
                                                     2        0.3338000       31.23972700   -0.08566500
                                                     2        1.3912000       47.82197000   -1.40581500
                                                     2        1.4978000      -29.59718500    1.29234900
                                                     2        3.3704000       68.58837100   -8.96269500
                                                     2        3.5468000      -27.41664200    8.53959100
                                                     1        8.2835000       44.57673700    0.03823400
                                                     0       23.9644000        4.99491900   -0.00013500
   11         78           10
                                      G and up 
                                                     2        0.9121000       -0.97492800   -0.03342500
                                                     2        2.1654000       -9.49699300    0.06250400
                                                     2        6.0658000      -31.97232500   -0.22863200
                                                     2       15.5208000     -115.02309300    0.51435300
                                                     2       52.9464000     -275.53891400    0.64900500
                                                     1      160.8809000      -50.80278000    2.08263100
                                      S - G
                                                     2        1.1433000      -80.75402100    0.00000000
                                                     2        1.3248000      255.40243000    0.00000000
                                                     2        1.7240000     -314.58084500    0.00000000
                                                     2        2.4106000      297.73494000    0.00000000
                                                     2        3.4997000     -197.63933800    0.00000000
                                                     2        5.1300000      146.50839800    0.00000000
                                                     1       12.9092000       48.66068400    0.00000000
                                                     0       34.2266000        4.06491200    0.00000000
                                      P - G
                                                     2        0.8516000      -17.78671700   11.38657300
                                                     2        0.9751000       96.91400300  -14.23379800
                                                     2        1.2662000     -146.01452600   -5.86430100
                                                     2        1.8051000      147.23194700   21.05562600
                                                     2        2.7050000      -89.58618000  -19.78553600
                                                     2        4.2448000       85.01801200    9.61422900
                                                     1       10.7439000       50.10876800   -0.54164500
                                                     0       31.2146000        5.64266300    0.07682900
                                      D - G
                                                     2        0.2820000       -0.11851300   -0.01299200
                                                     2        1.2672000      -17.32895000    0.60627900
                                                     2        1.5692000       49.30339200   -1.31436900
                                                     2        2.3019000     -115.68026800   -0.02155200
                                                     2        3.2936000      226.66457000    7.15442500
                                                     2        4.6091000     -154.83076900   -9.17221300
                                                     1        7.7365000       59.63910000    0.46198200
                                                     0       36.1000000        6.81120200   -0.06518500
                                      F - G
                                                     2        0.3213000      -28.15009500    0.08326200
                                                     2        0.3338000       31.23972700   -0.08566500
                                                     2        1.3912000       47.82197000   -1.40581500
                                                     2        1.4978000      -29.59718500    1.29234900
                                                     2        3.3704000       68.58837100   -8.96269500
                                                     2        3.5468000      -27.41664200    8.53959100
                                                     1        8.2835000       44.57673700    0.03823400
                                                     0       23.9644000        4.99491900   -0.00013500
   12         78           10
                                      G and up 
                                                     2        0.9121000       -0.97492800   -0.03342500
                                                     2        2.1654000       -9.49699300    0.06250400
                                                     2        6.0658000      -31.97232500   -0.22863200
                                                     2       15.5208000     -115.02309300    0.51435300
                                                     2       52.9464000     -275.53891400    0.64900500
                                                     1      160.8809000      -50.80278000    2.08263100
                                      S - G
                                                     2        1.1433000      -80.75402100    0.00000000
                                                     2        1.3248000      255.40243000    0.00000000
                                                     2        1.7240000     -314.58084500    0.00000000
                                                     2        2.4106000      297.73494000    0.00000000
                                                     2        3.4997000     -197.63933800    0.00000000
                                                     2        5.1300000      146.50839800    0.00000000
                                                     1       12.9092000       48.66068400    0.00000000
                                                     0       34.2266000        4.06491200    0.00000000
                                      P - G
                                                     2        0.8516000      -17.78671700   11.38657300
                                                     2        0.9751000       96.91400300  -14.23379800
                                                     2        1.2662000     -146.01452600   -5.86430100
                                                     2        1.8051000      147.23194700   21.05562600
                                                     2        2.7050000      -89.58618000  -19.78553600
                                                     2        4.2448000       85.01801200    9.61422900
                                                     1       10.7439000       50.10876800   -0.54164500
                                                     0       31.2146000        5.64266300    0.07682900
                                      D - G
                                                     2        0.2820000       -0.11851300   -0.01299200
                                                     2        1.2672000      -17.32895000    0.60627900
                                                     2        1.5692000       49.30339200   -1.31436900
                                                     2        2.3019000     -115.68026800   -0.02155200
                                                     2        3.2936000      226.66457000    7.15442500
                                                     2        4.6091000     -154.83076900   -9.17221300
                                                     1        7.7365000       59.63910000    0.46198200
                                                     0       36.1000000        6.81120200   -0.06518500
                                      F - G
                                                     2        0.3213000      -28.15009500    0.08326200
                                                     2        0.3338000       31.23972700   -0.08566500
                                                     2        1.3912000       47.82197000   -1.40581500
                                                     2        1.4978000      -29.59718500    1.29234900
                                                     2        3.3704000       68.58837100   -8.96269500
                                                     2        3.5468000      -27.41664200    8.53959100
                                                     1        8.2835000       44.57673700    0.03823400
                                                     0       23.9644000        4.99491900   -0.00013500
   13         78           10
                                      G and up 
                                                     2        0.9121000       -0.97492800   -0.03342500
                                                     2        2.1654000       -9.49699300    0.06250400
                                                     2        6.0658000      -31.97232500   -0.22863200
                                                     2       15.5208000     -115.02309300    0.51435300
                                                     2       52.9464000     -275.53891400    0.64900500
                                                     1      160.8809000      -50.80278000    2.08263100
                                      S - G
                                                     2        1.1433000      -80.75402100    0.00000000
                                                     2        1.3248000      255.40243000    0.00000000
                                                     2        1.7240000     -314.58084500    0.00000000
                                                     2        2.4106000      297.73494000    0.00000000
                                                     2        3.4997000     -197.63933800    0.00000000
                                                     2        5.1300000      146.50839800    0.00000000
                                                     1       12.9092000       48.66068400    0.00000000
                                                     0       34.2266000        4.06491200    0.00000000
                                      P - G
                                                     2        0.8516000      -17.78671700   11.38657300
                                                     2        0.9751000       96.91400300  -14.23379800
                                                     2        1.2662000     -146.01452600   -5.86430100
                                                     2        1.8051000      147.23194700   21.05562600
                                                     2        2.7050000      -89.58618000  -19.78553600
                                                     2        4.2448000       85.01801200    9.61422900
                                                     1       10.7439000       50.10876800   -0.54164500
                                                     0       31.2146000        5.64266300    0.07682900
                                      D - G
                                                     2        0.2820000       -0.11851300   -0.01299200
                                                     2        1.2672000      -17.32895000    0.60627900
                                                     2        1.5692000       49.30339200   -1.31436900
                                                     2        2.3019000     -115.68026800   -0.02155200
                                                     2        3.2936000      226.66457000    7.15442500
                                                     2        4.6091000     -154.83076900   -9.17221300
                                                     1        7.7365000       59.63910000    0.46198200
                                                     0       36.1000000        6.81120200   -0.06518500
                                      F - G
                                                     2        0.3213000      -28.15009500    0.08326200
                                                     2        0.3338000       31.23972700   -0.08566500
                                                     2        1.3912000       47.82197000   -1.40581500
                                                     2        1.4978000      -29.59718500    1.29234900
                                                     2        3.3704000       68.58837100   -8.96269500
                                                     2        3.5468000      -27.41664200    8.53959100
                                                     1        8.2835000       44.57673700    0.03823400
                                                     0       23.9644000        4.99491900   -0.00013500
   14         78           10
                                      G and up 
                                                     2        0.9121000       -0.97492800   -0.03342500
                                                     2        2.1654000       -9.49699300    0.06250400
                                                     2        6.0658000      -31.97232500   -0.22863200
                                                     2       15.5208000     -115.02309300    0.51435300
[...]
                 (A") (A') (A") (A') (A') (A") (A') (A') (A') (A")
                 (A') (A") (A") (A') (A') (A') (A") (A') (A") (A')
                 (A") (A') (A") (A") (A') (A") (A') (A") (A') (A')
                 (A") (A') (A') (A") (A') (A") (A') (A') (A") (A")
       Virtual   (A") (A') (A") (A') (A") (A') (A") (A') (A') (A')
                 (A") (A') (A") (A') (A') (A") (A') (A") (A') (A')
                 (A") (A') (A") (A') (A') (A') (A') (A") (A') (A")
                 (A') (A') (A') (A") (A') (A") (A") (A') (A") (A')
                 (A') (A") (A') (A") (A') (A') (A") (A') (A") (A')
                 (A') (A") (A") (A") (A') (A') (A") (A') (A') (A')
                 (A") (A") (A') (A') (A") (A') (A') (A") (A') (A")
                 (A") (A") (A') (A") (A') (A") (A") (A') (A") (A')
                 (A") (A') (A") (A') (A") (A') (A") (A") (A') (A")
                 (A') (A') (A") (A') (A') (A') (A') (A') (A') (A")
                 (A') (A') (A") (A') (A') (A") (A') (A') (A") (A')
                 (A') (A')
 The electronic state is 1-A'.
 Alpha  occ. eigenvalues --   -0.43169  -0.40669  -0.40496  -0.40432  -0.40322
 Alpha  occ. eigenvalues --   -0.40106  -0.39902  -0.39611  -0.39437  -0.39319
 Alpha  occ. eigenvalues --   -0.39001  -0.38882  -0.38832  -0.38803  -0.38792
 Alpha  occ. eigenvalues --   -0.38553  -0.38439  -0.38412  -0.38060  -0.38049
 Alpha  occ. eigenvalues --   -0.37745  -0.37620  -0.37106  -0.36966  -0.36573
 Alpha  occ. eigenvalues --   -0.36507  -0.36118  -0.36087  -0.36008  -0.35856
 Alpha  occ. eigenvalues --   -0.35706  -0.35516  -0.35288  -0.35241  -0.35055
 Alpha  occ. eigenvalues --   -0.34962  -0.34944  -0.34809  -0.34728  -0.34445
 Alpha  occ. eigenvalues --   -0.34286  -0.34079  -0.33953  -0.33702  -0.33692
 Alpha  occ. eigenvalues --   -0.33506  -0.33476  -0.33123  -0.32892  -0.32585
 Alpha  occ. eigenvalues --   -0.32392  -0.32347  -0.32175  -0.32139  -0.31905
 Alpha  occ. eigenvalues --   -0.31848  -0.31590  -0.31469  -0.31310  -0.31233
 Alpha  occ. eigenvalues --   -0.31137  -0.31044  -0.30971  -0.30800  -0.30737
 Alpha  occ. eigenvalues --   -0.30671  -0.30361  -0.30320  -0.30305  -0.30263
 Alpha  occ. eigenvalues --   -0.30122  -0.29964  -0.29814  -0.29758  -0.29752
 Alpha  occ. eigenvalues --   -0.29624  -0.29342  -0.29176  -0.29158  -0.29080
 Alpha  occ. eigenvalues --   -0.29018  -0.28913  -0.28826  -0.28754  -0.28589
 Alpha  occ. eigenvalues --   -0.28410  -0.28334  -0.28207  -0.28122  -0.28093
 Alpha  occ. eigenvalues --   -0.28067  -0.27915  -0.27901  -0.27869  -0.27747
 Alpha  occ. eigenvalues --   -0.27742  -0.27577  -0.27437  -0.27231  -0.27221
 Alpha  occ. eigenvalues --   -0.27199  -0.27105  -0.26919  -0.26907  -0.26785
 Alpha  occ. eigenvalues --   -0.26722  -0.26544  -0.26366  -0.26354  -0.26302
 Alpha  occ. eigenvalues --   -0.26225  -0.26189  -0.26081  -0.26056  -0.26009
 Alpha  occ. eigenvalues --   -0.25944  -0.25859  -0.25793  -0.25771  -0.25707
 Alpha  occ. eigenvalues --   -0.25585  -0.25554  -0.25499  -0.25191  -0.25180
 Alpha  occ. eigenvalues --   -0.25115  -0.25107  -0.24981  -0.24972  -0.24916
 Alpha  occ. eigenvalues --   -0.24867  -0.24786  -0.24657  -0.24628  -0.24479
 Alpha  occ. eigenvalues --   -0.24466  -0.24387  -0.24324  -0.24068  -0.24026
 Alpha virt. eigenvalues --   -0.23938  -0.23934  -0.23824  -0.23520  -0.23280
 Alpha virt. eigenvalues --   -0.23249  -0.22375  -0.20646  -0.20550  -0.19898
 Alpha virt. eigenvalues --   -0.16014  -0.15156  -0.15030  -0.14340  -0.14065
 Alpha virt. eigenvalues --   -0.14001  -0.12964  -0.12763  -0.12568  -0.11455
 Alpha virt. eigenvalues --   -0.11311  -0.10557  -0.10509  -0.07619  -0.07020
 Alpha virt. eigenvalues --   -0.06588  -0.06469  -0.06384  -0.05626  -0.05581
 Alpha virt. eigenvalues --   -0.05105  -0.04531  -0.03653  -0.03450  -0.03365
 Alpha virt. eigenvalues --   -0.03196  -0.02786  -0.02061  -0.01800  -0.01293
 Alpha virt. eigenvalues --   -0.01006  -0.00928  -0.00747  -0.00564   0.00915
 Alpha virt. eigenvalues --    0.01777   0.01977   0.02964   0.03083   0.04437
 Alpha virt. eigenvalues --    0.04600   0.04850   0.05221   0.05596   0.05632
 Alpha virt. eigenvalues --    0.05679   0.06141   0.06282   0.08674   0.10571
 Alpha virt. eigenvalues --    0.10623   0.10949   0.10998   0.11651   0.11717
 Alpha virt. eigenvalues --    0.13948   0.14861   0.14981   0.16239   0.16272
 Alpha virt. eigenvalues --    0.16462   0.20123   0.20127   0.22067   0.22111
 Alpha virt. eigenvalues --    0.22426   0.23235   0.24855   0.24947   0.26998
 Alpha virt. eigenvalues --    0.30648   0.30882   0.31830   0.35554   0.35984
 Alpha virt. eigenvalues --    0.47188   0.54404   0.59572   0.68273   0.69028
 Alpha virt. eigenvalues --    0.70515   0.83679   0.84040   0.89032   1.00805
 Alpha virt. eigenvalues --    1.07959   1.12496   1.37046   1.38891   1.39675
 Alpha virt. eigenvalues --    1.50290   1.61843   1.63705   1.64559   1.77834
 Alpha virt. eigenvalues --    1.78137   1.82097   1.93752   1.97070   2.09961
 Alpha virt. eigenvalues --    2.52591   5.24133
          Condensed to atoms (all electrons):
               1          2          3          4          5          6
     1  Pt  10.745679  -0.073048  -0.111845  -0.066837  -0.114186  -0.070143
     2  Pt  -0.073048  10.562622  -0.001100  -0.110598  -0.069330  -0.025670
     3  Pt  -0.111845  -0.001100  10.745679  -0.066837  -0.046814  -0.070143
     4  Pt  -0.066837  -0.110598  -0.066837  10.899159  -0.070352  -0.109954
     5  Pt  -0.114186  -0.069330  -0.046814  -0.070352  10.735506  -0.001365
     6  Pt  -0.070143  -0.025670  -0.070143  -0.109954  -0.001365  10.572193
     7  Pt  -0.001100  -0.000864  -0.073048  -0.110598  -0.001687  -0.025670
     8  Pt  -0.046814  -0.001687  -0.114186  -0.070352  -0.116487  -0.001365
     9  Pt  -0.001413  -0.025204  -0.001413  -0.111481  -0.072543  -0.000863
    10  Pt  -0.008573  -0.035625  -0.008573   0.014972  -0.035371  -0.000534
    11  Pt  -0.001765   0.004519  -0.034946   0.015828  -0.005405  -0.034183
    12  Pt  -0.034946   0.001305  -0.001765   0.015828  -0.037033  -0.034183
    13  Pt  -0.037065  -0.035406  -0.037065   0.013379  -0.000617   0.001046
    14  Pt  -0.063965  -0.039441  -0.063965  -0.156825  -0.054951  -0.042888
    15  Pt  -0.004606  -0.004109  -0.004606  -0.038608  -0.002357  -0.005862
    16  Pt  -0.000871  -0.000171  -0.000871  -0.002297   0.000068  -0.000763
    17  Pt  -0.000734  -0.000687  -0.000038  -0.002179  -0.000771  -0.000260
    18  Pt  -0.000038   0.000041  -0.000734  -0.002179   0.000177  -0.000260
    19  Pt   0.000071  -0.000222   0.000071  -0.002056  -0.000623   0.000001
    20  Pt   0.000002   0.000011   0.000002  -0.000043   0.000006  -0.000030
    21  Pt  -0.000051   0.000002   0.000002  -0.000064   0.000003   0.000009
    22  Pt   0.000009  -0.000030   0.000005  -0.000041   0.000001   0.000009
    23  Pt   0.000002   0.000007  -0.000051  -0.000064   0.000010   0.000009
    24  Pt   0.000007   0.000007   0.000007  -0.000039   0.000008   0.000006
    25  Pt  -0.000068  -0.000039  -0.000068  -0.000197  -0.000056  -0.000046
    26  Pt   0.000004   0.000008   0.000008  -0.000062  -0.000047   0.000007
    27  Pt   0.000005   0.000006   0.000009  -0.000041   0.000008   0.000009
    28  Pt   0.000008   0.000005   0.000004  -0.000062   0.000005   0.000007
               7          8          9         10         11         12
     1  Pt  -0.001100  -0.046814  -0.001413  -0.008573  -0.001765  -0.034946
     2  Pt  -0.000864  -0.001687  -0.025204  -0.035625   0.004519   0.001305
     3  Pt  -0.073048  -0.114186  -0.001413  -0.008573  -0.034946  -0.001765
     4  Pt  -0.110598  -0.070352  -0.111481   0.014972   0.015828   0.015828
     5  Pt  -0.001687  -0.116487  -0.072543  -0.035371  -0.005405  -0.037033
     6  Pt  -0.025670  -0.001365  -0.000863  -0.000534  -0.034183  -0.034183
     7  Pt  10.562622  -0.069330  -0.025204  -0.035625   0.001305   0.004519
     8  Pt  -0.069330  10.735506  -0.072543  -0.035371  -0.037033  -0.005405
     9  Pt  -0.025204  -0.072543  10.555604   0.001629  -0.036600  -0.036600
    10  Pt  -0.035625  -0.035371   0.001629  10.266053   0.076131   0.076131
    11  Pt   0.001305  -0.037033  -0.036600   0.076131  10.221346  -0.031317
    12  Pt   0.004519  -0.005405  -0.036600   0.076131  -0.031317  10.221346
    13  Pt  -0.035406  -0.000617   0.009141  -0.032009   0.065331   0.065331
    14  Pt  -0.039441  -0.054951  -0.036435  -0.090013  -0.080420  -0.080420
    15  Pt  -0.004109  -0.002357  -0.002691  -0.172875  -0.146039  -0.146039
    16  Pt  -0.000171   0.000068   0.000069  -0.026612  -0.012155  -0.012155
    17  Pt   0.000041   0.000177  -0.000137  -0.015970  -0.023180  -0.005498
    18  Pt  -0.000687  -0.000771  -0.000137  -0.015970  -0.005498  -0.023180
    19  Pt  -0.000222  -0.000623  -0.000591  -0.007838  -0.013682  -0.013682
    20  Pt   0.000011   0.000006   0.000006  -0.000744  -0.000181  -0.000181
    21  Pt   0.000007   0.000010   0.000006  -0.000804  -0.000746   0.000138
    22  Pt   0.000006   0.000008   0.000010  -0.000223  -0.000697   0.000038
    23  Pt   0.000002   0.000003   0.000006  -0.000804   0.000138  -0.000746
    24  Pt   0.000007   0.000008  -0.000030   0.000034  -0.000217  -0.000217
    25  Pt  -0.000039  -0.000056  -0.000033  -0.002576  -0.002127  -0.002127
    26  Pt   0.000005   0.000005   0.000003   0.000083  -0.000749   0.000013
    27  Pt  -0.000030   0.000001   0.000010  -0.000223   0.000038  -0.000697
    28  Pt   0.000008  -0.000047   0.000003   0.000083   0.000013  -0.000749
              13         14         15         16         17         18
     1  Pt  -0.037065  -0.063965  -0.004606  -0.000871  -0.000734  -0.000038
     2  Pt  -0.035406  -0.039441  -0.004109  -0.000171  -0.000687   0.000041
     3  Pt  -0.037065  -0.063965  -0.004606  -0.000871  -0.000038  -0.000734
     4  Pt   0.013379  -0.156825  -0.038608  -0.002297  -0.002179  -0.002179
     5  Pt  -0.000617  -0.054951  -0.002357   0.000068  -0.000771   0.000177
     6  Pt   0.001046  -0.042888  -0.005862  -0.000763  -0.000260  -0.000260
     7  Pt  -0.035406  -0.039441  -0.004109  -0.000171   0.000041  -0.000687
     8  Pt  -0.000617  -0.054951  -0.002357   0.000068   0.000177  -0.000771
     9  Pt   0.009141  -0.036435  -0.002691   0.000069  -0.000137  -0.000137
    10  Pt  -0.032009  -0.090013  -0.172875  -0.026612  -0.015970  -0.015970
    11  Pt   0.065331  -0.080420  -0.146039  -0.012155  -0.023180  -0.005498
    12  Pt   0.065331  -0.080420  -0.146039  -0.012155  -0.005498  -0.023180
    13  Pt  10.182781  -0.067027  -0.121930  -0.003721  -0.010225  -0.010225
    14  Pt  -0.067027  10.992696  -0.173634  -0.143283  -0.146767  -0.146767
    15  Pt  -0.121930  -0.173634  10.990083  -0.077060  -0.080869  -0.080869
    16  Pt  -0.003721  -0.143283  -0.077060  10.206632   0.069732   0.069732
    17  Pt  -0.010225  -0.146767  -0.080869   0.069732  10.209177  -0.031328
    18  Pt  -0.010225  -0.146767  -0.080869   0.069732  -0.031328  10.209177
    19  Pt  -0.019871  -0.150716  -0.085761  -0.031563   0.072552   0.072552
    20  Pt   0.000040  -0.003982  -0.039332   0.007286  -0.035259  -0.035259
    21  Pt   0.000059  -0.003130  -0.058614  -0.001355  -0.001415  -0.036265
    22  Pt  -0.000174  -0.004212  -0.039806  -0.035036   0.007623   0.001166
    23  Pt   0.000059  -0.003130  -0.058614  -0.001355  -0.036265  -0.001415
    24  Pt  -0.000643  -0.004450  -0.040735   0.001200  -0.034912  -0.034912
    25  Pt  -0.001726  -0.038044  -0.155408   0.017258   0.018423   0.018423
    26  Pt  -0.000670  -0.003529  -0.059753  -0.036227  -0.001134  -0.036000
    27  Pt  -0.000174  -0.004212  -0.039806  -0.035036   0.001166   0.007623
    28  Pt  -0.000670  -0.003529  -0.059753  -0.036227  -0.036000  -0.001134
              19         20         21         22         23         24
     1  Pt   0.000071   0.000002  -0.000051   0.000009   0.000002   0.000007
     2  Pt  -0.000222   0.000011   0.000002  -0.000030   0.000007   0.000007
     3  Pt   0.000071   0.000002   0.000002   0.000005  -0.000051   0.000007
     4  Pt  -0.002056  -0.000043  -0.000064  -0.000041  -0.000064  -0.000039
     5  Pt  -0.000623   0.000006   0.000003   0.000001   0.000010   0.000008
     6  Pt   0.000001  -0.000030   0.000009   0.000009   0.000009   0.000006
     7  Pt  -0.000222   0.000011   0.000007   0.000006   0.000002   0.000007
     8  Pt  -0.000623   0.000006   0.000010   0.000008   0.000003   0.000008
     9  Pt  -0.000591   0.000006   0.000006   0.000010   0.000006  -0.000030
    10  Pt  -0.007838  -0.000744  -0.000804  -0.000223  -0.000804   0.000034
    11  Pt  -0.013682  -0.000181  -0.000746  -0.000697   0.000138  -0.000217
    12  Pt  -0.013682  -0.000181   0.000138   0.000038  -0.000746  -0.000217
    13  Pt  -0.019871   0.000040   0.000059  -0.000174   0.000059  -0.000643
    14  Pt  -0.150716  -0.003982  -0.003130  -0.004212  -0.003130  -0.004450
    15  Pt  -0.085761  -0.039332  -0.058614  -0.039806  -0.058614  -0.040735
    16  Pt  -0.031563   0.007286  -0.001355  -0.035036  -0.001355   0.001200
    17  Pt   0.072552  -0.035259  -0.001415   0.007623  -0.036265  -0.034912
    18  Pt   0.072552  -0.035259  -0.036265   0.001166  -0.001415  -0.034912
    19  Pt  10.215716   0.001230  -0.035878  -0.035047  -0.035878   0.006666
    20  Pt   0.001230  10.551854  -0.068278  -0.025518  -0.068278  -0.000826
    21  Pt  -0.035878  -0.068278  10.722075  -0.067849  -0.112300  -0.001503
    22  Pt  -0.035047  -0.025518  -0.067849  10.551768  -0.001595  -0.025513
    23  Pt  -0.035878  -0.068278  -0.112300  -0.001595  10.722075  -0.001503
    24  Pt   0.006666  -0.000826  -0.001503  -0.025513  -0.001503  10.553665
    25  Pt   0.018561  -0.108727  -0.066689  -0.108587  -0.066689  -0.108738
    26  Pt  -0.001385  -0.001498  -0.111820  -0.068253  -0.046917  -0.067592
    27  Pt  -0.035047  -0.025518  -0.001595  -0.000821  -0.067849  -0.025513
    28  Pt  -0.001385  -0.001498  -0.046917  -0.001500  -0.111820  -0.067592
              25         26         27         28
     1  Pt  -0.000068   0.000004   0.000005   0.000008
     2  Pt  -0.000039   0.000008   0.000006   0.000005
     3  Pt  -0.000068   0.000008   0.000009   0.000004
     4  Pt  -0.000197  -0.000062  -0.000041  -0.000062
     5  Pt  -0.000056  -0.000047   0.000008   0.000005
     6  Pt  -0.000046   0.000007   0.000009   0.000007
     7  Pt  -0.000039   0.000005  -0.000030   0.000008
     8  Pt  -0.000056   0.000005   0.000001  -0.000047
     9  Pt  -0.000033   0.000003   0.000010   0.000003
    10  Pt  -0.002576   0.000083  -0.000223   0.000083
    11  Pt  -0.002127  -0.000749   0.000038   0.000013
    12  Pt  -0.002127   0.000013  -0.000697  -0.000749
    13  Pt  -0.001726  -0.000670  -0.000174  -0.000670
    14  Pt  -0.038044  -0.003529  -0.004212  -0.003529
    15  Pt  -0.155408  -0.059753  -0.039806  -0.059753
    16  Pt   0.017258  -0.036227  -0.035036  -0.036227
    17  Pt   0.018423  -0.001134   0.001166  -0.036000
    18  Pt   0.018423  -0.036000   0.007623  -0.001134
    19  Pt   0.018561  -0.001385  -0.035047  -0.001385
    20  Pt  -0.108727  -0.001498  -0.025518  -0.001498
    21  Pt  -0.066689  -0.111820  -0.001595  -0.046917
    22  Pt  -0.108587  -0.068253  -0.000821  -0.001500
    23  Pt  -0.066689  -0.046917  -0.067849  -0.111820
    24  Pt  -0.108738  -0.067592  -0.025513  -0.067592
    25  Pt  10.867702  -0.066552  -0.108587  -0.066552
    26  Pt  -0.066552  10.722812  -0.001500  -0.111501
    27  Pt  -0.108587  -0.001500  10.551768  -0.068253
    28  Pt  -0.066552  -0.111501  -0.068253  10.722812
 Mulliken charges:
               1
     1  Pt  -0.107718
     2  Pt  -0.145304
     3  Pt  -0.107718
     4  Pt  -0.037401
     5  Pt  -0.105795
     6  Pt  -0.149110
     7  Pt  -0.145304
     8  Pt  -0.105795
     9  Pt  -0.142570
    10  Pt   0.091215
    11  Pt   0.082289
    12  Pt   0.082289
    13  Pt   0.078074
    14  Pt   0.707432
    15  Pt   0.716117
    16  Pt   0.084881
    17  Pt   0.084737
    18  Pt   0.084737
    19  Pt   0.084654
    20  Pt  -0.145301
    21  Pt  -0.107036
    22  Pt  -0.145740
    23  Pt  -0.107036
    24  Pt  -0.146684
    25  Pt  -0.036634
    26  Pt  -0.107761
    27  Pt  -0.145740
    28  Pt  -0.107761
 Sum of Mulliken charges =   0.00002
 Mulliken charges with hydrogens summed into heavy atoms:
               1
     1  Pt  -0.107718
     2  Pt  -0.145304
     3  Pt  -0.107718
     4  Pt  -0.037401
     5  Pt  -0.105795
     6  Pt  -0.149110
     7  Pt  -0.145304
     8  Pt  -0.105795
     9  Pt  -0.142570
    10  Pt   0.091215
    11  Pt   0.082289
    12  Pt   0.082289
    13  Pt   0.078074
    14  Pt   0.707432
    15  Pt   0.716117
    16  Pt   0.084881
    17  Pt   0.084737
    18  Pt   0.084737
    19  Pt   0.084654
    20  Pt  -0.145301
    21  Pt  -0.107036
    22  Pt  -0.145740
    23  Pt  -0.107036
    24  Pt  -0.146684
    25  Pt  -0.036634
    26  Pt  -0.107761
    27  Pt  -0.145740
    28  Pt  -0.107761
 Electronic spatial extent (au):  <R**2>=          29123.2730
 Charge=              0.0000 electrons
 Dipole moment (field-independent basis, Debye):
    X=              0.0810    Y=             -0.1426    Z=             -0.0000  Tot=              0.1640
 Quadrupole moment (field-independent basis, Debye-Ang):
   XX=           -565.0289   YY=           -721.9007   ZZ=           -564.9867
   XY=              0.2493   XZ=              0.0000   YZ=             -0.0000
 Traceless Quadrupole moment (field-independent basis, Debye-Ang):
   XX=             52.2765   YY=           -104.5953   ZZ=             52.3187
   XY=              0.2493   XZ=              0.0000   YZ=             -0.0000
 Octapole moment (field-independent basis, Debye-Ang**2):
  XXX=              1.6786  YYY=             -7.6744  ZZZ=              0.0000  XYY=              0.4418
  XXY=             -3.8505  XXZ=              0.0000  XZZ=             -0.3419  YZZ=             -3.1257
  YYZ=             -0.0000  XYZ=              0.0000
 Hexadecapole moment (field-independent basis, Debye-Ang**3):
 XXXX=         -15253.1519 YYYY=         -77656.9586 ZZZZ=         -15250.9243 XXXY=             16.9100
 XXXZ=             -0.0000 YYYX=             14.7566 YYYZ=             -0.0000 ZZZX=             -0.0000
 ZZZY=              0.0000 XXYY=         -15726.3686 XXZZ=          -4911.2028 YYZZ=         -15725.3984
 XXYZ=             -0.0000 YYXZ=             -0.0000 ZZXY=              1.8592
 N-N= 3.702635263769D+03 E-N=-9.325790651543D+03  KE= 5.845710478012D+02
 Symmetry A'   KE= 3.177960348825D+02
 Symmetry A"   KE= 2.667750129187D+02
 No NMR shielding tensors so no spin-rotation constants.
 Leave Link  601 at Wed Apr 10 14:38:51 2024, MaxMem=    33554432 cpu:         0.2
 (Enter /home/palacios/ANT/Gaussian/g09.D01.ifx/g09/l9999.exe)

 Test job not archived.
 1\1\GINC-LIAN\SP\RSVWN\Gen\Pt28\PALACIOS\10-Apr-2024\0\\#p LSDA/gen ps
 eudo=read scf=(conver=5,dsymm,maxcyc=300) test\\Pt9-Pt4-Pt-Pt-Pt4-Pt9\
 \0,1\Pt,0,-1.96,1.96,9.46\Pt,0,-3.92,0.,9.46\Pt,0,1.96,1.96,9.46\Pt,0,
 0.,0.,9.46\Pt,0,-1.96,-1.96,9.46\Pt,0,0.,3.92,9.46\Pt,0,3.92,0.,9.46\P
 t,0,1.96,-1.96,9.46\Pt,0,0.,-3.92,9.46\Pt,0,0.,1.96,7.5\Pt,0,-1.96,0.,
 7.5\Pt,0,1.96,0.,7.5\Pt,0,0.,-1.96,7.5\Pt,0,0.,0.1,5.54\Pt,0,0.,0.,3.0
 8\Pt,0,0.,1.96,1.12\Pt,0,-1.96,0.,1.12\Pt,0,1.96,0.,1.12\Pt,0,0.,-1.96
 ,1.12\Pt,0,0.,3.92,-0.84\Pt,0,-1.96,1.96,-0.84\Pt,0,-3.92,0.,-0.84\Pt,
 0,1.96,1.96,-0.84\Pt,0,0.,-3.92,-0.84\Pt,0,0.,0.,-0.84\Pt,0,-1.96,-1.9
 6,-0.84\Pt,0,3.92,0.,-0.84\Pt,0,1.96,-1.96,-0.84\\Version=ES64L-G09Rev
 D.01\State=1-A'\HF=-770.7544832\RMSD=8.912e-06\Dipole=0.,-0.0318591,-0
 .0561227\Quadrupole=38.8976968,38.8663162,-77.764013,0.,0.,-0.1853751\
 PG=CS [SG(Pt12),X(Pt16)]\\@


 OPTIMIST - A PESSIMIST WHO LACKS EXPERIENCE
 Job cpu time:       0 days  0 hours 11 minutes 40.3 seconds.
 File lengths (MBytes):  RWF=     36 Int=      0 D2E=      0 Chk=      3 Scr=      1
 Normal termination of Gaussian 09 at Wed Apr 10 14:38:51 2024.
