 Entering Gaussian System, Link 0=g09
 Input=Pt9-Pt4-Pt-Pt-Pt4-Pt9.gjf
 Output=Pt9-Pt4-Pt-Pt-Pt4-Pt9.log
 Initial command:
 /home/palacios/gaussian/g09/l1.exe "/home/palacios/scratch/Gau-27569.inp" -scrdir="/home/palacios/scratch/"
 Entering Link 1 = /home/palacios/gaussian/g09/l1.exe PID=     27571.
  
 Copyright (c) 1988,1990,1992,1993,1995,1998,2003,2009,2013,
            Gaussian, Inc.  All Rights Reserved.
  
 This is part of the Gaussian(R) 09 program.  It is based on
 the Gaussian(R) 03 system (copyright 2003, Gaussian, Inc.),
 the Gaussian(R) 98 system (copyright 1998, Gaussian, Inc.),
 the Gaussian(R) 94 system (copyright 1995, Gaussian, Inc.),
 the Gaussian 92(TM) system (copyright 1992, Gaussian, Inc.),
 the Gaussian 90(TM) system (copyright 1990, Gaussian, Inc.),
 the Gaussian 88(TM) system (copyright 1988, Gaussian, Inc.),
 the Gaussian 86(TM) system (copyright 1986, Carnegie Mellon
 University), and the Gaussian 82(TM) system (copyright 1983,
 Carnegie Mellon University). Gaussian is a federally registered
 trademark of Gaussian, Inc.
  
 This software contains proprietary and confidential information,
 including trade secrets, belonging to Gaussian, Inc.
  
 This software is provided under written license and may be
 used, copied, transmitted, or stored only in accord with that
 written license.
  
 The following legend is applicable only to US Government
 contracts under FAR:
  
                    RESTRICTED RIGHTS LEGEND
  
 Use, reproduction and disclosure by the US Government is
 subject to restrictions as set forth in subparagraphs (a)
 and (c) of the Commercial Computer Software - Restricted
 Rights clause in FAR 52.227-19.
  
 Gaussian, Inc.
 340 Quinnipiac St., Bldg. 40, Wallingford CT 06492
  
  
 ---------------------------------------------------------------
 Warning -- This program may not be used in any manner that
 competes with the business of Gaussian, Inc. or will provide
 assistance to any competitor of Gaussian, Inc.  The licensee
 of this program is prohibited from giving any competitor of
 Gaussian, Inc. access to this program.  By using this program,
 the user acknowledges that Gaussian, Inc. is engaged in the
 business of creating and licensing software in the field of
 computational chemistry and represents and warrants to the
 licensee that it is not a competitor of Gaussian, Inc. and that
 it will not use this program in any manner prohibited above.
 ---------------------------------------------------------------
  

 Cite this work as:
 Gaussian 09, Revision D.01,
 M. J. Frisch, G. W. Trucks, H. B. Schlegel, G. E. Scuseria, 
 M. A. Robb, J. R. Cheeseman, G. Scalmani, V. Barone, B. Mennucci, 
 G. A. Petersson, H. Nakatsuji, M. Caricato, X. Li, H. P. Hratchian, 
 A. F. Izmaylov, J. Bloino, G. Zheng, J. L. Sonnenberg, M. Hada, 
 M. Ehara, K. Toyota, R. Fukuda, J. Hasegawa, M. Ishida, T. Nakajima, 
 Y. Honda, O. Kitao, H. Nakai, T. Vreven, J. A. Montgomery, Jr., 
 J. E. Peralta, F. Ogliaro, M. Bearpark, J. J. Heyd, E. Brothers, 
 K. N. Kudin, V. N. Staroverov, T. Keith, R. Kobayashi, J. Normand, 
 K. Raghavachari, A. Rendell, J. C. Burant, S. S. Iyengar, J. Tomasi, 
 M. Cossi, N. Rega, J. M. Millam, M. Klene, J. E. Knox, J. B. Cross, 
 V. Bakken, C. Adamo, J. Jaramillo, R. Gomperts, R. E. Stratmann, 
 O. Yazyev, A. J. Austin, R. Cammi, C. Pomelli, J. W. Ochterski, 
 R. L. Martin, K. Morokuma, V. G. Zakrzewski, G. A. Voth, 
 P. Salvador, J. J. Dannenberg, S. Dapprich, A. D. Daniels, 
 O. Farkas, J. B. Foresman, J. V. Ortiz, J. Cioslowski, 
 and D. J. Fox, Gaussian, Inc., Wallingford CT, 2013.
 
 ******************************************
 Gaussian 09:  ES64L-G09RevD.01 24-Apr-2013
                10-Feb-2016 
 ******************************************
 %mem=250mb
 %Subst L101 ../bin
 %Subst L502 ../bin
 %NProcShared=4
 Will use up to    4 processors via shared memory.
 ----------------------------------------------------
 #p lsda/gen pseudo=read gfinput Scf=(conver=6,dsymm)
 ----------------------------------------------------
 1/38=1/1;
 2/12=2,17=6,18=5,40=1/2;
 3/5=7,11=2,16=1,17=8,24=10,25=1,30=1,74=205/1,2,3;
 4//1;
 5/5=2,6=6,17=200,38=5/2;
 6/7=2,8=2,9=2,10=2,28=1/1;
 99/5=1,9=1/99;
 Leave Link    1 at Wed Feb 10 15:08:19 2016, MaxMem=    32768000 cpu:         0.1
 (Enter ../bin/l101.exe)
 ---------------------
 Pt9-Pt4-Pt-Pt-Pt4-Pt9
 ---------------------
 Symbolic Z-matrix:
 Charge =  0 Multiplicity = 1
 78                   -1.96      1.96      9.46 
 78                   -3.92      0.        9.46 
 78                    1.96      1.96      9.46 
 78                    0.        0.        9.46 
 78                   -1.96     -1.96      9.46 
 78                    0.        3.92      9.46 
 78                    3.92      0.        9.46 
 78                    1.96     -1.96      9.46 
 78                    0.       -3.92      9.46 
 78                    0.        1.96      7.5 
 78                   -1.96      0.        7.5 
 78                    1.96      0.        7.5 
 78                    0.       -1.96      7.5 
 78                    0.        0.        5.54 
 78                    0.        0.        3.08 
 78                    0.        1.96      1.12 
 78                   -1.96      0.        1.12 
 78                    1.96      0.        1.12 
 78                    0.       -1.96      1.12 
 78                    0.        3.92     -0.84 
 78                   -1.96      1.96     -0.84 
 78                   -3.92      0.       -0.84 
 78                    1.96      1.96     -0.84 
 78                    0.       -3.92     -0.84 
 78                    0.        0.       -0.84 
 78                   -1.96     -1.96     -0.84 
 78                    3.92      0.       -0.84 
 78                    1.96     -1.96     -0.84 
 
 NAtoms=     28 NQM=       28 NQMF=       0 NMMI=      0 NMMIF=      0
                NMic=       0 NMicF=      0.
                    Isotopes and Nuclear Properties:
 (Nuclear quadrupole moments (NQMom) in fm**2, nuclear magnetic moments (NMagM)
  in nuclear magnetons)

  Atom         1           2           3           4           5           6           7           8           9          10
 IAtWgt=         195         195         195         195         195         195         195         195         195         195
 AtmWgt= 194.9648000 194.9648000 194.9648000 194.9648000 194.9648000 194.9648000 194.9648000 194.9648000 194.9648000 194.9648000
 NucSpn=           1           1           1           1           1           1           1           1           1           1
 AtZEff=   0.0000000   0.0000000   0.0000000   0.0000000   0.0000000   0.0000000   0.0000000   0.0000000   0.0000000   0.0000000
 NQMom=    0.0000000   0.0000000   0.0000000   0.0000000   0.0000000   0.0000000   0.0000000   0.0000000   0.0000000   0.0000000
 NMagM=    0.6095000   0.6095000   0.6095000   0.6095000   0.6095000   0.6095000   0.6095000   0.6095000   0.6095000   0.6095000
 AtZNuc=  78.0000000  78.0000000  78.0000000  78.0000000  78.0000000  78.0000000  78.0000000  78.0000000  78.0000000  78.0000000

  Atom        11          12          13          14          15          16          17          18          19          20
 IAtWgt=         195         195         195         195         195         195         195         195         195         195
 AtmWgt= 194.9648000 194.9648000 194.9648000 194.9648000 194.9648000 194.9648000 194.9648000 194.9648000 194.9648000 194.9648000
 NucSpn=           1           1           1           1           1           1           1           1           1           1
 AtZEff=   0.0000000   0.0000000   0.0000000   0.0000000   0.0000000   0.0000000   0.0000000   0.0000000   0.0000000   0.0000000
 NQMom=    0.0000000   0.0000000   0.0000000   0.0000000   0.0000000   0.0000000   0.0000000   0.0000000   0.0000000   0.0000000
 NMagM=    0.6095000   0.6095000   0.6095000   0.6095000   0.6095000   0.6095000   0.6095000   0.6095000   0.6095000   0.6095000
 AtZNuc=  78.0000000  78.0000000  78.0000000  78.0000000  78.0000000  78.0000000  78.0000000  78.0000000  78.0000000  78.0000000

  Atom        21          22          23          24          25          26          27          28
 IAtWgt=         195         195         195         195         195         195         195         195
 AtmWgt= 194.9648000 194.9648000 194.9648000 194.9648000 194.9648000 194.9648000 194.9648000 194.9648000
 NucSpn=           1           1           1           1           1           1           1           1
 AtZEff=   0.0000000   0.0000000   0.0000000   0.0000000   0.0000000   0.0000000   0.0000000   0.0000000
 NQMom=    0.0000000   0.0000000   0.0000000   0.0000000   0.0000000   0.0000000   0.0000000   0.0000000
 NMagM=    0.6095000   0.6095000   0.6095000   0.6095000   0.6095000   0.6095000   0.6095000   0.6095000
 AtZNuc=  78.0000000  78.0000000  78.0000000  78.0000000  78.0000000  78.0000000  78.0000000  78.0000000
 Leave Link  101 at Wed Feb 10 15:08:19 2016, MaxMem=    32768000 cpu:         0.2
 (Enter /home/palacios/gaussian/g09/l202.exe)
                          Input orientation:                          
 ---------------------------------------------------------------------
 Center     Atomic      Atomic             Coordinates (Angstroms)
 Number     Number       Type             X           Y           Z
 ---------------------------------------------------------------------
      1         78           0       -1.960000    1.960000    9.460000
      2         78           0       -3.920000    0.000000    9.460000
      3         78           0        1.960000    1.960000    9.460000
      4         78           0        0.000000    0.000000    9.460000
      5         78           0       -1.960000   -1.960000    9.460000
      6         78           0        0.000000    3.920000    9.460000
      7         78           0        3.920000    0.000000    9.460000
      8         78           0        1.960000   -1.960000    9.460000
      9         78           0        0.000000   -3.920000    9.460000
     10         78           0        0.000000    1.960000    7.500000
     11         78           0       -1.960000    0.000000    7.500000
     12         78           0        1.960000    0.000000    7.500000
     13         78           0        0.000000   -1.960000    7.500000
     14         78           0        0.000000    0.000000    5.540000
     15         78           0        0.000000    0.000000    3.080000
     16         78           0        0.000000    1.960000    1.120000
     17         78           0       -1.960000    0.000000    1.120000
     18         78           0        1.960000    0.000000    1.120000
     19         78           0        0.000000   -1.960000    1.120000
     20         78           0        0.000000    3.920000   -0.840000
     21         78           0       -1.960000    1.960000   -0.840000
     22         78           0       -3.920000    0.000000   -0.840000
     23         78           0        1.960000    1.960000   -0.840000
     24         78           0        0.000000   -3.920000   -0.840000
     25         78           0        0.000000    0.000000   -0.840000
     26         78           0       -1.960000   -1.960000   -0.840000
     27         78           0        3.920000    0.000000   -0.840000
     28         78           0        1.960000   -1.960000   -0.840000
 ---------------------------------------------------------------------
                    Distance matrix (angstroms):
                    1          2          3          4          5
     1  Pt   0.000000
     2  Pt   2.771859   0.000000
     3  Pt   3.920000   6.198064   0.000000
     4  Pt   2.771859   3.920000   2.771859   0.000000
     5  Pt   3.920000   2.771859   5.543717   2.771859   0.000000
     6  Pt   2.771859   5.543717   2.771859   3.920000   6.198064
     7  Pt   6.198064   7.840000   2.771859   3.920000   6.198064
     8  Pt   5.543717   6.198064   3.920000   2.771859   3.920000
     9  Pt   6.198064   5.543717   6.198064   3.920000   2.771859
    10  Pt   2.771859   4.801000   2.771859   2.771859   4.801000
    11  Pt   2.771859   2.771859   4.801000   2.771859   2.771859
    12  Pt   4.801000   6.198064   2.771859   2.771859   4.801000
    13  Pt   4.801000   4.801000   4.801000   2.771859   2.771859
    14  Pt   4.801000   5.543717   4.801000   3.920000   4.801000
    15  Pt   6.956120   7.488044   6.956120   6.380000   6.956120
    16  Pt   8.567217   9.421444   8.567217   8.567217   9.421444
    17  Pt   8.567217   8.567217   9.421444   8.567217   8.567217
    18  Pt   9.421444  10.204411   8.567217   8.567217   9.421444
    19  Pt   9.421444   9.421444   9.421444   8.567217   8.567217
    20  Pt  10.666452  11.697128  10.666452  11.020726  12.021065
    21  Pt  10.300000  10.666452  11.020726  10.666452  11.020726
    22  Pt  10.666452  10.300000  12.021065  11.020726  10.666452
    23  Pt  11.020726  12.021065  10.300000  10.666452  11.697128
    24  Pt  12.021065  11.697128  12.021065  11.020726  10.666452
    25  Pt  10.666452  11.020726  10.666452  10.300000  10.666452
    26  Pt  11.020726  10.666452  11.697128  10.666452  10.300000
    27  Pt  12.021065  12.944327  10.666452  11.020726  12.021065
    28  Pt  11.697128  12.021065  11.020726  10.666452  11.020726
                    6          7          8          9         10
     6  Pt   0.000000
     7  Pt   5.543717   0.000000
     8  Pt   6.198064   2.771859   0.000000
     9  Pt   7.840000   5.543717   2.771859   0.000000
    10  Pt   2.771859   4.801000   4.801000   6.198064   0.000000
    11  Pt   4.801000   6.198064   4.801000   4.801000   2.771859
    12  Pt   4.801000   2.771859   2.771859   4.801000   2.771859
    13  Pt   6.198064   4.801000   2.771859   2.771859   3.920000
    14  Pt   5.543717   5.543717   4.801000   5.543717   2.771859
    15  Pt   7.488044   7.488044   6.956120   7.488044   4.835080
    16  Pt   8.567217   9.421444   9.421444  10.204411   6.380000
    17  Pt   9.421444  10.204411   9.421444   9.421444   6.956120
    18  Pt   9.421444   8.567217   8.567217   9.421444   6.956120
    19  Pt  10.204411   9.421444   8.567217   8.567217   7.488044
    20  Pt  10.300000  11.697128  12.021065  12.944327   8.567217
    21  Pt  10.666452  12.021065  11.697128  12.021065   8.567217
    22  Pt  11.697128  12.944327  12.021065  11.697128   9.421444
    23  Pt  10.666452  10.666452  11.020726  12.021065   8.567217
    24  Pt  12.944327  11.697128  10.666452  10.300000  10.204411
    25  Pt  11.020726  11.020726  10.666452  11.020726   8.567217
    26  Pt  12.021065  12.021065  11.020726  10.666452   9.421444
    27  Pt  11.697128  10.300000  10.666452  11.697128   9.421444
    28  Pt  12.021065  10.666452  10.300000  10.666452   9.421444
                   11         12         13         14         15
    11  Pt   0.000000
    12  Pt   3.920000   0.000000
    13  Pt   2.771859   2.771859   0.000000
    14  Pt   2.771859   2.771859   2.771859   0.000000
    15  Pt   4.835080   4.835080   4.835080   2.460000   0.000000
    16  Pt   6.956120   6.956120   7.488044   4.835080   2.771859
    17  Pt   6.380000   7.488044   6.956120   4.835080   2.771859
    18  Pt   7.488044   6.380000   6.956120   4.835080   2.771859
    19  Pt   6.956120   6.956120   6.380000   4.835080   2.771859
    20  Pt   9.421444   9.421444  10.204411   7.488044   5.543717
    21  Pt   8.567217   9.421444   9.421444   6.956120   4.801000
    22  Pt   8.567217  10.204411   9.421444   7.488044   5.543717
    23  Pt   9.421444   8.567217   9.421444   6.956120   4.801000
    24  Pt   9.421444   9.421444   8.567217   7.488044   5.543717
    25  Pt   8.567217   8.567217   8.567217   6.380000   3.920000
    26  Pt   8.567217   9.421444   8.567217   6.956120   4.801000
    27  Pt  10.204411   8.567217   9.421444   7.488044   5.543717
    28  Pt   9.421444   8.567217   8.567217   6.956120   4.801000
                   16         17         18         19         20
    16  Pt   0.000000
    17  Pt   2.771859   0.000000
    18  Pt   2.771859   3.920000   0.000000
    19  Pt   3.920000   2.771859   2.771859   0.000000
    20  Pt   2.771859   4.801000   4.801000   6.198064   0.000000
    21  Pt   2.771859   2.771859   4.801000   4.801000   2.771859
    22  Pt   4.801000   2.771859   6.198064   4.801000   5.543717
    23  Pt   2.771859   4.801000   2.771859   4.801000   2.771859
    24  Pt   6.198064   4.801000   4.801000   2.771859   7.840000
    25  Pt   2.771859   2.771859   2.771859   2.771859   3.920000
    26  Pt   4.801000   2.771859   4.801000   2.771859   6.198064
    27  Pt   4.801000   6.198064   2.771859   4.801000   5.543717
    28  Pt   4.801000   4.801000   2.771859   2.771859   6.198064
                   21         22         23         24         25
    21  Pt   0.000000
    22  Pt   2.771859   0.000000
    23  Pt   3.920000   6.198064   0.000000
    24  Pt   6.198064   5.543717   6.198064   0.000000
    25  Pt   2.771859   3.920000   2.771859   3.920000   0.000000
    26  Pt   3.920000   2.771859   5.543717   2.771859   2.771859
    27  Pt   6.198064   7.840000   2.771859   5.543717   3.920000
    28  Pt   5.543717   6.198064   3.920000   2.771859   2.771859
                   26         27         28
    26  Pt   0.000000
    27  Pt   6.198064   0.000000
    28  Pt   3.920000   2.771859   0.000000
 Stoichiometry    Pt28
 Framework group  D4H[C4(PtPt.PtPt),2SGV(Pt8),2SGD(Pt4)]
 Deg. of freedom     8
 Full point group                 D4H     NOp  16
 Largest Abelian subgroup         D2H     NOp   8
 Largest concise Abelian subgroup D2H     NOp   8
                         Standard orientation:                         
 ---------------------------------------------------------------------
 Center     Atomic      Atomic             Coordinates (Angstroms)
 Number     Number       Type             X           Y           Z
 ---------------------------------------------------------------------
      1         78           0       -1.960000    1.960000    5.150000
      2         78           0       -3.920000    0.000000    5.150000
      3         78           0        1.960000    1.960000    5.150000
      4         78           0        0.000000    0.000000    5.150000
      5         78           0       -1.960000   -1.960000    5.150000
      6         78           0        0.000000    3.920000    5.150000
      7         78           0        3.920000    0.000000    5.150000
      8         78           0        1.960000   -1.960000    5.150000
      9         78           0        0.000000   -3.920000    5.150000
     10         78           0        0.000000    1.960000    3.190000
     11         78           0       -1.960000    0.000000    3.190000
     12         78           0        1.960000    0.000000    3.190000
     13         78           0        0.000000   -1.960000    3.190000
     14         78           0        0.000000    0.000000    1.230000
     15         78           0        0.000000    0.000000   -1.230000
     16         78           0        0.000000    1.960000   -3.190000
     17         78           0       -1.960000    0.000000   -3.190000
     18         78           0        1.960000    0.000000   -3.190000
     19         78           0        0.000000   -1.960000   -3.190000
     20         78           0        0.000000    3.920000   -5.150000
     21         78           0       -1.960000    1.960000   -5.150000
     22         78           0       -3.920000    0.000000   -5.150000
     23         78           0        1.960000    1.960000   -5.150000
     24         78           0        0.000000   -3.920000   -5.150000
     25         78           0        0.000000    0.000000   -5.150000
     26         78           0       -1.960000   -1.960000   -5.150000
     27         78           0        3.920000    0.000000   -5.150000
     28         78           0        1.960000   -1.960000   -5.150000
 ---------------------------------------------------------------------
 Rotational constants (GHZ):      0.0120493      0.0038723      0.0038723
 Leave Link  202 at Wed Feb 10 15:08:19 2016, MaxMem=    32768000 cpu:         0.0
 (Enter /home/palacios/gaussian/g09/l301.exe)
 General basis read from cards:  (5D, 7F)
 Centers:       1      2      3      4      5      6      7      8      9     10
 Centers:      11     12     13     14     15     16     17     18     19     20
 Centers:      21     22     23     24     25     26     27     28
 S 3 1.00
     Exponent=  4.0240000000D-01 Coefficients= -9.9690000000D-01
     Exponent=  2.7040000000D-01 Coefficients=  1.0610000000D+00
     Exponent=  6.1200000000D-02 Coefficients=  8.1170000000D-01
 P 3 1.00
     Exponent=  6.7510000000D-01 Coefficients= -4.2700000000D-02
     Exponent=  9.6600000000D-02 Coefficients=  4.7890000000D-01
     Exponent=  2.8800000000D-02 Coefficients=  6.3010000000D-01
 D 4 1.00
     Exponent=  1.2792000000D+00 Coefficients=  4.6140000000D-01
     Exponent=  4.8900000000D-01 Coefficients=  4.5870000000D-01
     Exponent=  1.9050000000D-01 Coefficients=  2.3460000000D-01
     Exponent=  7.4700000000D-02 Coefficients=  5.0000000000D-02
 ****
 ======================================================================================================
                                       Pseudopotential Parameters
 ======================================================================================================
  Center     Atomic      Valence      Angular      Power
  Number     Number     Electrons     Momentum     of R      Exponent        Coefficient   SO-Coeffient
 ======================================================================================================
    1         78           10
                                      G and up 
                                                     2        0.9121000       -0.97492800   -0.03342500
                                                     2        2.1654000       -9.49699300    0.06250400
                                                     2        6.0658000      -31.97232500   -0.22863200
                                                     2       15.5208000     -115.02309300    0.51435300
                                                     2       52.9464000     -275.53891400    0.64900500
                                                     1      160.8809000      -50.80278000    2.08263100
                                      S - G
                                                     2        1.1433000      -80.75402100    0.00000000
                                                     2        1.3248000      255.40243000    0.00000000
                                                     2        1.7240000     -314.58084500    0.00000000
                                                     2        2.4106000      297.73494000    0.00000000
                                                     2        3.4997000     -197.63933800    0.00000000
                                                     2        5.1300000      146.50839800    0.00000000
                                                     1       12.9092000       48.66068400    0.00000000
                                                     0       34.2266000        4.06491200    0.00000000
                                      P - G
                                                     2        0.8516000      -17.78671700   11.38657300
                                                     2        0.9751000       96.91400300  -14.23379800
                                                     2        1.2662000     -146.01452600   -5.86430100
                                                     2        1.8051000      147.23194700   21.05562600
                                                     2        2.7050000      -89.58618000  -19.78553600
                                                     2        4.2448000       85.01801200    9.61422900
                                                     1       10.7439000       50.10876800   -0.54164500
                                                     0       31.2146000        5.64266300    0.07682900
                                      D - G
                                                     2        0.2820000       -0.11851300   -0.01299200
                                                     2        1.2672000      -17.32895000    0.60627900
                                                     2        1.5692000       49.30339200   -1.31436900
                                                     2        2.3019000     -115.68026800   -0.02155200
                                                     2        3.2936000      226.66457000    7.15442500
                                                     2        4.6091000     -154.83076900   -9.17221300
                                                     1        7.7365000       59.63910000    0.46198200
                                                     0       36.1000000        6.81120200   -0.06518500
                                      F - G
                                                     2        0.3213000      -28.15009500    0.08326200
                                                     2        0.3338000       31.23972700   -0.08566500
                                                     2        1.3912000       47.82197000   -1.40581500
                                                     2        1.4978000      -29.59718500    1.29234900
                                                     2        3.3704000       68.58837100   -8.96269500
                                                     2        3.5468000      -27.41664200    8.53959100
                                                     1        8.2835000       44.57673700    0.03823400
                                                     0       23.9644000        4.99491900   -0.00013500
    2         78           10
                                      G and up 
                                                     2        0.9121000       -0.97492800   -0.03342500
                                                     2        2.1654000       -9.49699300    0.06250400
                                                     2        6.0658000      -31.97232500   -0.22863200
                                                     2       15.5208000     -115.02309300    0.51435300
                                                     2       52.9464000     -275.53891400    0.64900500
                                                     1      160.8809000      -50.80278000    2.08263100
                                      S - G
                                                     2        1.1433000      -80.75402100    0.00000000
                                                     2        1.3248000      255.40243000    0.00000000
                                                     2        1.7240000     -314.58084500    0.00000000
                                                     2        2.4106000      297.73494000    0.00000000
                                                     2        3.4997000     -197.63933800    0.00000000
                                                     2        5.1300000      146.50839800    0.00000000
                                                     1       12.9092000       48.66068400    0.00000000
                                                     0       34.2266000        4.06491200    0.00000000
                                      P - G
                                                     2        0.8516000      -17.78671700   11.38657300
                                                     2        0.9751000       96.91400300  -14.23379800
                                                     2        1.2662000     -146.01452600   -5.86430100
                                                     2        1.8051000      147.23194700   21.05562600
                                                     2        2.7050000      -89.58618000  -19.78553600
                                                     2        4.2448000       85.01801200    9.61422900
                                                     1       10.7439000       50.10876800   -0.54164500
                                                     0       31.2146000        5.64266300    0.07682900
                                      D - G
                                                     2        0.2820000       -0.11851300   -0.01299200
                                                     2        1.2672000      -17.32895000    0.60627900
                                                     2        1.5692000       49.30339200   -1.31436900
                                                     2        2.3019000     -115.68026800   -0.02155200
                                                     2        3.2936000      226.66457000    7.15442500
                                                     2        4.6091000     -154.83076900   -9.17221300
                                                     1        7.7365000       59.63910000    0.46198200
                                                     0       36.1000000        6.81120200   -0.06518500
                                      F - G
                                                     2        0.3213000      -28.15009500    0.08326200
                                                     2        0.3338000       31.23972700   -0.08566500
                                                     2        1.3912000       47.82197000   -1.40581500
                                                     2        1.4978000      -29.59718500    1.29234900
                                                     2        3.3704000       68.58837100   -8.96269500
                                                     2        3.5468000      -27.41664200    8.53959100
                                                     1        8.2835000       44.57673700    0.03823400
                                                     0       23.9644000        4.99491900   -0.00013500
    3         78           10
                                      G and up 
                                                     2        0.9121000       -0.97492800   -0.03342500
                                                     2        2.1654000       -9.49699300    0.06250400
                                                     2        6.0658000      -31.97232500   -0.22863200
                                                     2       15.5208000     -115.02309300    0.51435300
                                                     2       52.9464000     -275.53891400    0.64900500
                                                     1      160.8809000      -50.80278000    2.08263100
                                      S - G
                                                     2        1.1433000      -80.75402100    0.00000000
                                                     2        1.3248000      255.40243000    0.00000000
                                                     2        1.7240000     -314.58084500    0.00000000
                                                     2        2.4106000      297.73494000    0.00000000
                                                     2        3.4997000     -197.63933800    0.00000000
                                                     2        5.1300000      146.50839800    0.00000000
                                                     1       12.9092000       48.66068400    0.00000000
                                                     0       34.2266000        4.06491200    0.00000000
                                      P - G
                                                     2        0.8516000      -17.78671700   11.38657300
                                                     2        0.9751000       96.91400300  -14.23379800
                                                     2        1.2662000     -146.01452600   -5.86430100
                                                     2        1.8051000      147.23194700   21.05562600
                                                     2        2.7050000      -89.58618000  -19.78553600
                                                     2        4.2448000       85.01801200    9.61422900
                                                     1       10.7439000       50.10876800   -0.54164500
                                                     0       31.2146000        5.64266300    0.07682900
                                      D - G
                                                     2        0.2820000       -0.11851300   -0.01299200
                                                     2        1.2672000      -17.32895000    0.60627900
                                                     2        1.5692000       49.30339200   -1.31436900
                                                     2        2.3019000     -115.68026800   -0.02155200
                                                     2        3.2936000      226.66457000    7.15442500
                                                     2        4.6091000     -154.83076900   -9.17221300
                                                     1        7.7365000       59.63910000    0.46198200
                                                     0       36.1000000        6.81120200   -0.06518500
                                      F - G
                                                     2        0.3213000      -28.15009500    0.08326200
                                                     2        0.3338000       31.23972700   -0.08566500
                                                     2        1.3912000       47.82197000   -1.40581500
                                                     2        1.4978000      -29.59718500    1.29234900
                                                     2        3.3704000       68.58837100   -8.96269500
                                                     2        3.5468000      -27.41664200    8.53959100
                                                     1        8.2835000       44.57673700    0.03823400
                                                     0       23.9644000        4.99491900   -0.00013500
    4         78           10
                                      G and up 
                                                     2        0.9121000       -0.97492800   -0.03342500
                                                     2        2.1654000       -9.49699300    0.06250400
                                                     2        6.0658000      -31.97232500   -0.22863200
                                                     2       15.5208000     -115.02309300    0.51435300
                                                     2       52.9464000     -275.53891400    0.64900500
                                                     1      160.8809000      -50.80278000    2.08263100
                                      S - G
                                                     2        1.1433000      -80.75402100    0.00000000
                                                     2        1.3248000      255.40243000    0.00000000
                                                     2        1.7240000     -314.58084500    0.00000000
                                                     2        2.4106000      297.73494000    0.00000000
                                                     2        3.4997000     -197.63933800    0.00000000
                                                     2        5.1300000      146.50839800    0.00000000
                                                     1       12.9092000       48.66068400    0.00000000
                                                     0       34.2266000        4.06491200    0.00000000
                                      P - G
                                                     2        0.8516000      -17.78671700   11.38657300
                                                     2        0.9751000       96.91400300  -14.23379800
                                                     2        1.2662000     -146.01452600   -5.86430100
                                                     2        1.8051000      147.23194700   21.05562600
                                                     2        2.7050000      -89.58618000  -19.78553600
                                                     2        4.2448000       85.01801200    9.61422900
                                                     1       10.7439000       50.10876800   -0.54164500
                                                     0       31.2146000        5.64266300    0.07682900
                                      D - G
                                                     2        0.2820000       -0.11851300   -0.01299200
                                                     2        1.2672000      -17.32895000    0.60627900
                                                     2        1.5692000       49.30339200   -1.31436900
                                                     2        2.3019000     -115.68026800   -0.02155200
                                                     2        3.2936000      226.66457000    7.15442500
                                                     2        4.6091000     -154.83076900   -9.17221300
                                                     1        7.7365000       59.63910000    0.46198200
                                                     0       36.1000000        6.81120200   -0.06518500
                                      F - G
                                                     2        0.3213000      -28.15009500    0.08326200
                                                     2        0.3338000       31.23972700   -0.08566500
                                                     2        1.3912000       47.82197000   -1.40581500
                                                     2        1.4978000      -29.59718500    1.29234900
                                                     2        3.3704000       68.58837100   -8.96269500
                                                     2        3.5468000      -27.41664200    8.53959100
                                                     1        8.2835000       44.57673700    0.03823400
                                                     0       23.9644000        4.99491900   -0.00013500
    5         78           10
                                      G and up 
                                                     2        0.9121000       -0.97492800   -0.03342500
                                                     2        2.1654000       -9.49699300    0.06250400
                                                     2        6.0658000      -31.97232500   -0.22863200
                                                     2       15.5208000     -115.02309300    0.51435300
                                                     2       52.9464000     -275.53891400    0.64900500
                                                     1      160.8809000      -50.80278000    2.08263100
                                      S - G
                                                     2        1.1433000      -80.75402100    0.00000000
                                                     2        1.3248000      255.40243000    0.00000000
                                                     2        1.7240000     -314.58084500    0.00000000
                                                     2        2.4106000      297.73494000    0.00000000
                                                     2        3.4997000     -197.63933800    0.00000000
                                                     2        5.1300000      146.50839800    0.00000000
                                                     1       12.9092000       48.66068400    0.00000000
                                                     0       34.2266000        4.06491200    0.00000000
                                      P - G
                                                     2        0.8516000      -17.78671700   11.38657300
                                                     2        0.9751000       96.91400300  -14.23379800
                                                     2        1.2662000     -146.01452600   -5.86430100
                                                     2        1.8051000      147.23194700   21.05562600
                                                     2        2.7050000      -89.58618000  -19.78553600
                                                     2        4.2448000       85.01801200    9.61422900
                                                     1       10.7439000       50.10876800   -0.54164500
                                                     0       31.2146000        5.64266300    0.07682900
                                      D - G
                                                     2        0.2820000       -0.11851300   -0.01299200
                                                     2        1.2672000      -17.32895000    0.60627900
                                                     2        1.5692000       49.30339200   -1.31436900
                                                     2        2.3019000     -115.68026800   -0.02155200
                                                     2        3.2936000      226.66457000    7.15442500
                                                     2        4.6091000     -154.83076900   -9.17221300
                                                     1        7.7365000       59.63910000    0.46198200
                                                     0       36.1000000        6.81120200   -0.06518500
                                      F - G
                                                     2        0.3213000      -28.15009500    0.08326200
                                                     2        0.3338000       31.23972700   -0.08566500
                                                     2        1.3912000       47.82197000   -1.40581500
                                                     2        1.4978000      -29.59718500    1.29234900
                                                     2        3.3704000       68.58837100   -8.96269500
                                                     2        3.5468000      -27.41664200    8.53959100
                                                     1        8.2835000       44.57673700    0.03823400
                                                     0       23.9644000        4.99491900   -0.00013500
    6         78           10
                                      G and up 
                                                     2        0.9121000       -0.97492800   -0.03342500
                                                     2        2.1654000       -9.49699300    0.06250400
                                                     2        6.0658000      -31.97232500   -0.22863200
                                                     2       15.5208000     -115.02309300    0.51435300
                                                     2       52.9464000     -275.53891400    0.64900500
                                                     1      160.8809000      -50.80278000    2.08263100
                                      S - G
                                                     2        1.1433000      -80.75402100    0.00000000
                                                     2        1.3248000      255.40243000    0.00000000
                                                     2        1.7240000     -314.58084500    0.00000000
                                                     2        2.4106000      297.73494000    0.00000000
                                                     2        3.4997000     -197.63933800    0.00000000
                                                     2        5.1300000      146.50839800    0.00000000
                                                     1       12.9092000       48.66068400    0.00000000
                                                     0       34.2266000        4.06491200    0.00000000
                                      P - G
                                                     2        0.8516000      -17.78671700   11.38657300
                                                     2        0.9751000       96.91400300  -14.23379800
                                                     2        1.2662000     -146.01452600   -5.86430100
                                                     2        1.8051000      147.23194700   21.05562600
                                                     2        2.7050000      -89.58618000  -19.78553600
                                                     2        4.2448000       85.01801200    9.61422900
                                                     1       10.7439000       50.10876800   -0.54164500
                                                     0       31.2146000        5.64266300    0.07682900
                                      D - G
                                                     2        0.2820000       -0.11851300   -0.01299200
                                                     2        1.2672000      -17.32895000    0.60627900
                                                     2        1.5692000       49.30339200   -1.31436900
                                                     2        2.3019000     -115.68026800   -0.02155200
                                                     2        3.2936000      226.66457000    7.15442500
                                                     2        4.6091000     -154.83076900   -9.17221300
                                                     1        7.7365000       59.63910000    0.46198200
                                                     0       36.1000000        6.81120200   -0.06518500
                                      F - G
                                                     2        0.3213000      -28.15009500    0.08326200
                                                     2        0.3338000       31.23972700   -0.08566500
                                                     2        1.3912000       47.82197000   -1.40581500
                                                     2        1.4978000      -29.59718500    1.29234900
                                                     2        3.3704000       68.58837100   -8.96269500
                                                     2        3.5468000      -27.41664200    8.53959100
                                                     1        8.2835000       44.57673700    0.03823400
                                                     0       23.9644000        4.99491900   -0.00013500
    7         78           10
                                      G and up 
                                                     2        0.9121000       -0.97492800   -0.03342500
                                                     2        2.1654000       -9.49699300    0.06250400
                                                     2        6.0658000      -31.97232500   -0.22863200
                                                     2       15.5208000     -115.02309300    0.51435300
                                                     2       52.9464000     -275.53891400    0.64900500
                                                     1      160.8809000      -50.80278000    2.08263100
                                      S - G
                                                     2        1.1433000      -80.75402100    0.00000000
                                                     2        1.3248000      255.40243000    0.00000000
                                                     2        1.7240000     -314.58084500    0.00000000
                                                     2        2.4106000      297.73494000    0.00000000
                                                     2        3.4997000     -197.63933800    0.00000000
                                                     2        5.1300000      146.50839800    0.00000000
                                                     1       12.9092000       48.66068400    0.00000000
                                                     0       34.2266000        4.06491200    0.00000000
                                      P - G
                                                     2        0.8516000      -17.78671700   11.38657300
                                                     2        0.9751000       96.91400300  -14.23379800
                                                     2        1.2662000     -146.01452600   -5.86430100
                                                     2        1.8051000      147.23194700   21.05562600
                                                     2        2.7050000      -89.58618000  -19.78553600
                                                     2        4.2448000       85.01801200    9.61422900
                                                     1       10.7439000       50.10876800   -0.54164500
                                                     0       31.2146000        5.64266300    0.07682900
                                      D - G
                                                     2        0.2820000       -0.11851300   -0.01299200
                                                     2        1.2672000      -17.32895000    0.60627900
                                                     2        1.5692000       49.30339200   -1.31436900
                                                     2        2.3019000     -115.68026800   -0.02155200
                                                     2        3.2936000      226.66457000    7.15442500
                                                     2        4.6091000     -154.83076900   -9.17221300
                                                     1        7.7365000       59.63910000    0.46198200
                                                     0       36.1000000        6.81120200   -0.06518500
                                      F - G
                                                     2        0.3213000      -28.15009500    0.08326200
                                                     2        0.3338000       31.23972700   -0.08566500
                                                     2        1.3912000       47.82197000   -1.40581500
                                                     2        1.4978000      -29.59718500    1.29234900
                                                     2        3.3704000       68.58837100   -8.96269500
                                                     2        3.5468000      -27.41664200    8.53959100
                                                     1        8.2835000       44.57673700    0.03823400
                                                     0       23.9644000        4.99491900   -0.00013500
    8         78           10
                                      G and up 
                                                     2        0.9121000       -0.97492800   -0.03342500
                                                     2        2.1654000       -9.49699300    0.06250400
                                                     2        6.0658000      -31.97232500   -0.22863200
                                                     2       15.5208000     -115.02309300    0.51435300
                                                     2       52.9464000     -275.53891400    0.64900500
                                                     1      160.8809000      -50.80278000    2.08263100
                                      S - G
                                                     2        1.1433000      -80.75402100    0.00000000
                                                     2        1.3248000      255.40243000    0.00000000
                                                     2        1.7240000     -314.58084500    0.00000000
                                                     2        2.4106000      297.73494000    0.00000000
                                                     2        3.4997000     -197.63933800    0.00000000
                                                     2        5.1300000      146.50839800    0.00000000
                                                     1       12.9092000       48.66068400    0.00000000
                                                     0       34.2266000        4.06491200    0.00000000
                                      P - G
                                                     2        0.8516000      -17.78671700   11.38657300
                                                     2        0.9751000       96.91400300  -14.23379800
                                                     2        1.2662000     -146.01452600   -5.86430100
                                                     2        1.8051000      147.23194700   21.05562600
                                                     2        2.7050000      -89.58618000  -19.78553600
                                                     2        4.2448000       85.01801200    9.61422900
                                                     1       10.7439000       50.10876800   -0.54164500
                                                     0       31.2146000        5.64266300    0.07682900
                                      D - G
                                                     2        0.2820000       -0.11851300   -0.01299200
                                                     2        1.2672000      -17.32895000    0.60627900
                                                     2        1.5692000       49.30339200   -1.31436900
                                                     2        2.3019000     -115.68026800   -0.02155200
                                                     2        3.2936000      226.66457000    7.15442500
                                                     2        4.6091000     -154.83076900   -9.17221300
                                                     1        7.7365000       59.63910000    0.46198200
                                                     0       36.1000000        6.81120200   -0.06518500
                                      F - G
                                                     2        0.3213000      -28.15009500    0.08326200
                                                     2        0.3338000       31.23972700   -0.08566500
                                                     2        1.3912000       47.82197000   -1.40581500
                                                     2        1.4978000      -29.59718500    1.29234900
                                                     2        3.3704000       68.58837100   -8.96269500
                                                     2        3.5468000      -27.41664200    8.53959100
                                                     1        8.2835000       44.57673700    0.03823400
                                                     0       23.9644000        4.99491900   -0.00013500
    9         78           10
                                      G and up 
                                                     2        0.9121000       -0.97492800   -0.03342500
                                                     2        2.1654000       -9.49699300    0.06250400
                                                     2        6.0658000      -31.97232500   -0.22863200
                                                     2       15.5208000     -115.02309300    0.51435300
                                                     2       52.9464000     -275.53891400    0.64900500
                                                     1      160.8809000      -50.80278000    2.08263100
                                      S - G
                                                     2        1.1433000      -80.75402100    0.00000000
                                                     2        1.3248000      255.40243000    0.00000000
                                                     2        1.7240000     -314.58084500    0.00000000
                                                     2        2.4106000      297.73494000    0.00000000
                                                     2        3.4997000     -197.63933800    0.00000000
                                                     2        5.1300000      146.50839800    0.00000000
                                                     1       12.9092000       48.66068400    0.00000000
                                                     0       34.2266000        4.06491200    0.00000000
                                      P - G
                                                     2        0.8516000      -17.78671700   11.38657300
                                                     2        0.9751000       96.91400300  -14.23379800
                                                     2        1.2662000     -146.01452600   -5.86430100
                                                     2        1.8051000      147.23194700   21.05562600
                                                     2        2.7050000      -89.58618000  -19.78553600
                                                     2        4.2448000       85.01801200    9.61422900
                                                     1       10.7439000       50.10876800   -0.54164500
                                                     0       31.2146000        5.64266300    0.07682900
                                      D - G
                                                     2        0.2820000       -0.11851300   -0.01299200
                                                     2        1.2672000      -17.32895000    0.60627900
                                                     2        1.5692000       49.30339200   -1.31436900
                                                     2        2.3019000     -115.68026800   -0.02155200
                                                     2        3.2936000      226.66457000    7.15442500
                                                     2        4.6091000     -154.83076900   -9.17221300
                                                     1        7.7365000       59.63910000    0.46198200
                                                     0       36.1000000        6.81120200   -0.06518500
                                      F - G
                                                     2        0.3213000      -28.15009500    0.08326200
                                                     2        0.3338000       31.23972700   -0.08566500
                                                     2        1.3912000       47.82197000   -1.40581500
                                                     2        1.4978000      -29.59718500    1.29234900
                                                     2        3.3704000       68.58837100   -8.96269500
                                                     2        3.5468000      -27.41664200    8.53959100
                                                     1        8.2835000       44.57673700    0.03823400
                                                     0       23.9644000        4.99491900   -0.00013500
   10         78           10
                                      G and up 
                                                     2        0.9121000       -0.97492800   -0.03342500
                                                     2        2.1654000       -9.49699300    0.06250400
                                                     2        6.0658000      -31.97232500   -0.22863200
                                                     2       15.5208000     -115.02309300    0.51435300
                                                     2       52.9464000     -275.53891400    0.64900500
                                                     1      160.8809000      -50.80278000    2.08263100
                                      S - G
                                                     2        1.1433000      -80.75402100    0.00000000
                                                     2        1.3248000      255.40243000    0.00000000
                                                     2        1.7240000     -314.58084500    0.00000000
                                                     2        2.4106000      297.73494000    0.00000000
                                                     2        3.4997000     -197.63933800    0.00000000
                                                     2        5.1300000      146.50839800    0.00000000
                                                     1       12.9092000       48.66068400    0.00000000
                                                     0       34.2266000        4.06491200    0.00000000
                                      P - G
                                                     2        0.8516000      -17.78671700   11.38657300
                                                     2        0.9751000       96.91400300  -14.23379800
                                                     2        1.2662000     -146.01452600   -5.86430100
                                                     2        1.8051000      147.23194700   21.05562600
                                                     2        2.7050000      -89.58618000  -19.78553600
                                                     2        4.2448000       85.01801200    9.61422900
                                                     1       10.7439000       50.10876800   -0.54164500
                                                     0       31.2146000        5.64266300    0.07682900
                                      D - G
                                                     2        0.2820000       -0.11851300   -0.01299200
                                                     2        1.2672000      -17.32895000    0.60627900
                                                     2        1.5692000       49.30339200   -1.31436900
                                                     2        2.3019000     -115.68026800   -0.02155200
                                                     2        3.2936000      226.66457000    7.15442500
                                                     2        4.6091000     -154.83076900   -9.17221300
                                                     1        7.7365000       59.63910000    0.46198200
                                                     0       36.1000000        6.81120200   -0.06518500
                                      F - G
                                                     2        0.3213000      -28.15009500    0.08326200
                                                     2        0.3338000       31.23972700   -0.08566500
                                                     2        1.3912000       47.82197000   -1.40581500
                                                     2        1.4978000      -29.59718500    1.29234900
                                                     2        3.3704000       68.58837100   -8.96269500
                                                     2        3.5468000      -27.41664200    8.53959100
                                                     1        8.2835000       44.57673700    0.03823400
                                                     0       23.9644000        4.99491900   -0.00013500
   11         78           10
                                      G and up 
                                                     2        0.9121000       -0.97492800   -0.03342500
                                                     2        2.1654000       -9.49699300    0.06250400
                                                     2        6.0658000      -31.97232500   -0.22863200
                                                     2       15.5208000     -115.02309300    0.51435300
                                                     2       52.9464000     -275.53891400    0.64900500
                                                     1      160.8809000      -50.80278000    2.08263100
                                      S - G
                                                     2        1.1433000      -80.75402100    0.00000000
                                                     2        1.3248000      255.40243000    0.00000000
                                                     2        1.7240000     -314.58084500    0.00000000
                                                     2        2.4106000      297.73494000    0.00000000
                                                     2        3.4997000     -197.63933800    0.00000000
                                                     2        5.1300000      146.50839800    0.00000000
                                                     1       12.9092000       48.66068400    0.00000000
                                                     0       34.2266000        4.06491200    0.00000000
                                      P - G
                                                     2        0.8516000      -17.78671700   11.38657300
                                                     2        0.9751000       96.91400300  -14.23379800
                                                     2        1.2662000     -146.01452600   -5.86430100
                                                     2        1.8051000      147.23194700   21.05562600
                                                     2        2.7050000      -89.58618000  -19.78553600
                                                     2        4.2448000       85.01801200    9.61422900
                                                     1       10.7439000       50.10876800   -0.54164500
                                                     0       31.2146000        5.64266300    0.07682900
                                      D - G
                                                     2        0.2820000       -0.11851300   -0.01299200
                                                     2        1.2672000      -17.32895000    0.60627900
                                                     2        1.5692000       49.30339200   -1.31436900
                                                     2        2.3019000     -115.68026800   -0.02155200
                                                     2        3.2936000      226.66457000    7.15442500
                                                     2        4.6091000     -154.83076900   -9.17221300
                                                     1        7.7365000       59.63910000    0.46198200
                                                     0       36.1000000        6.81120200   -0.06518500
                                      F - G
                                                     2        0.3213000      -28.15009500    0.08326200
                                                     2        0.3338000       31.23972700   -0.08566500
                                                     2        1.3912000       47.82197000   -1.40581500
                                                     2        1.4978000      -29.59718500    1.29234900
                                                     2        3.3704000       68.58837100   -8.96269500
                                                     2        3.5468000      -27.41664200    8.53959100
                                                     1        8.2835000       44.57673700    0.03823400
                                                     0       23.9644000        4.99491900   -0.00013500
   12         78           10
                                      G and up 
                                                     2        0.9121000       -0.97492800   -0.03342500
                                                     2        2.1654000       -9.49699300    0.06250400
                                                     2        6.0658000      -31.97232500   -0.22863200
                                                     2       15.5208000     -115.02309300    0.51435300
                                                     2       52.9464000     -275.53891400    0.64900500
                                                     1      160.8809000      -50.80278000    2.08263100
                                      S - G
                                                     2        1.1433000      -80.75402100    0.00000000
                                                     2        1.3248000      255.40243000    0.00000000
                                                     2        1.7240000     -314.58084500    0.00000000
                                                     2        2.4106000      297.73494000    0.00000000
                                                     2        3.4997000     -197.63933800    0.00000000
                                                     2        5.1300000      146.50839800    0.00000000
                                                     1       12.9092000       48.66068400    0.00000000
                                                     0       34.2266000        4.06491200    0.00000000
                                      P - G
                                                     2        0.8516000      -17.78671700   11.38657300
                                                     2        0.9751000       96.91400300  -14.23379800
                                                     2        1.2662000     -146.01452600   -5.86430100
                                                     2        1.8051000      147.23194700   21.05562600
                                                     2        2.7050000      -89.58618000  -19.78553600
                                                     2        4.2448000       85.01801200    9.61422900
                                                     1       10.7439000       50.10876800   -0.54164500
                                                     0       31.2146000        5.64266300    0.07682900
                                      D - G
                                                     2        0.2820000       -0.11851300   -0.01299200
                                                     2        1.2672000      -17.32895000    0.60627900
                                                     2        1.5692000       49.30339200   -1.31436900
                                                     2        2.3019000     -115.68026800   -0.02155200
                                                     2        3.2936000      226.66457000    7.15442500
                                                     2        4.6091000     -154.83076900   -9.17221300
                                                     1        7.7365000       59.63910000    0.46198200
                                                     0       36.1000000        6.81120200   -0.06518500
                                      F - G
                                                     2        0.3213000      -28.15009500    0.08326200
                                                     2        0.3338000       31.23972700   -0.08566500
                                                     2        1.3912000       47.82197000   -1.40581500
                                                     2        1.4978000      -29.59718500    1.29234900
                                                     2        3.3704000       68.58837100   -8.96269500
                                                     2        3.5468000      -27.41664200    8.53959100
                                                     1        8.2835000       44.57673700    0.03823400
                                                     0       23.9644000        4.99491900   -0.00013500
   13         78           10
                                      G and up 
                                                     2        0.9121000       -0.97492800   -0.03342500
                                                     2        2.1654000       -9.49699300    0.06250400
                                                     2        6.0658000      -31.97232500   -0.22863200
                                                     2       15.5208000     -115.02309300    0.51435300
                                                     2       52.9464000     -275.53891400    0.64900500
                                                     1      160.8809000      -50.80278000    2.08263100
                                      S - G
                                                     2        1.1433000      -80.75402100    0.00000000
                                                     2        1.3248000      255.40243000    0.00000000
                                                     2        1.7240000     -314.58084500    0.00000000
                                                     2        2.4106000      297.73494000    0.00000000
                                                     2        3.4997000     -197.63933800    0.00000000
                                                     2        5.1300000      146.50839800    0.00000000
                                                     1       12.9092000       48.66068400    0.00000000
                                                     0       34.2266000        4.06491200    0.00000000
                                      P - G
                                                     2        0.8516000      -17.78671700   11.38657300
                                                     2        0.9751000       96.91400300  -14.23379800
                                                     2        1.2662000     -146.01452600   -5.86430100
                                                     2        1.8051000      147.23194700   21.05562600
                                                     2        2.7050000      -89.58618000  -19.78553600
                                                     2        4.2448000       85.01801200    9.61422900
                                                     1       10.7439000       50.10876800   -0.54164500
                                                     0       31.2146000        5.64266300    0.07682900
                                      D - G
                                                     2        0.2820000       -0.11851300   -0.01299200
                                                     2        1.2672000      -17.32895000    0.60627900
                                                     2        1.5692000       49.30339200   -1.31436900
                                                     2        2.3019000     -115.68026800   -0.02155200
                                                     2        3.2936000      226.66457000    7.15442500
                                                     2        4.6091000     -154.83076900   -9.17221300
                                                     1        7.7365000       59.63910000    0.46198200
                                                     0       36.1000000        6.81120200   -0.06518500
                                      F - G
                                                     2        0.3213000      -28.15009500    0.08326200
                                                     2        0.3338000       31.23972700   -0.08566500
                                                     2        1.3912000       47.82197000   -1.40581500
                                                     2        1.4978000      -29.59718500    1.29234900
                                                     2        3.3704000       68.58837100   -8.96269500
                                                     2        3.5468000      -27.41664200    8.53959100
                                                     1        8.2835000       44.57673700    0.03823400
                                                     0       23.9644000        4.99491900   -0.00013500
   14         78           10
                                      G and up 
                                                     2        0.9121000       -0.97492800   -0.03342500
                                                     2        2.1654000       -9.49699300    0.06250400
                                                     2        6.0658000      -31.97232500   -0.22863200
                                                     2       15.5208000     -115.02309300    0.51435300
                                                     2       52.9464000     -275.53891400    0.64900500
                                                     1      160.8809000      -50.80278000    2.08263100
                                      S - G
                                                     2        1.1433000      -80.75402100    0.00000000
                                                     2        1.3248000      255.40243000    0.00000000
                                                     2        1.7240000     -314.58084500    0.00000000
                                                     2        2.4106000      297.73494000    0.00000000
                                                     2        3.4997000     -197.63933800    0.00000000
                                                     2        5.1300000      146.50839800    0.00000000
                                                     1       12.9092000       48.66068400    0.00000000
                                                     0       34.2266000        4.06491200    0.00000000
                                      P - G
                                                     2        0.8516000      -17.78671700   11.38657300
                                                     2        0.9751000       96.91400300  -14.23379800
                                                     2        1.2662000     -146.01452600   -5.86430100
                                                     2        1.8051000      147.23194700   21.05562600
                                                     2        2.7050000      -89.58618000  -19.78553600
                                                     2        4.2448000       85.01801200    9.61422900
                                                     1       10.7439000       50.10876800   -0.54164500
                                                     0       31.2146000        5.64266300    0.07682900
                                      D - G
                                                     2        0.2820000       -0.11851300   -0.01299200
                                                     2        1.2672000      -17.32895000    0.60627900
                                                     2        1.5692000       49.30339200   -1.31436900
                                                     2        2.3019000     -115.68026800   -0.02155200
                                                     2        3.2936000      226.66457000    7.15442500
                                                     2        4.6091000     -154.83076900   -9.17221300
                                                     1        7.7365000       59.63910000    0.46198200
                                                     0       36.1000000        6.81120200   -0.06518500
                                      F - G
                                                     2        0.3213000      -28.15009500    0.08326200
[...]
                 (B1U) (B1G) (B2U) (A2G) (A1U) (A2U) (EG) (EG)
                 (A1G) (EU) (EU) (EG) (EG) (B1G) (EU) (EU) (EG)
                 (EG) (B2G) (B1U) (A2U) (B2U) (A1G) (EU) (EU) (EG)
                 (EG) (EU) (EU) (A2U) (A1G) (B2G) (B1U) (EG) (EG)
                 (EU) (EU) (EG) (EG) (A2G) (A1U) (EU) (EU) (B1G)
                 (A2G) (B2U) (A1U) (EG) (EG) (A2U) (B2G) (B1U)
                 (EU) (EU) (A1G) (EG) (EG) (A2U) (B1G) (B2U) (A1G)
                 (A2U) (EU) (EU) (A1G) (B1G) (EG) (EG) (EU) (EU)
                 (B2U) (EG) (EG) (A2U) (A1G) (A2U)
 The electronic state is 1-A1G.
 Alpha  occ. eigenvalues --   -0.42740  -0.39539  -0.39539  -0.39364  -0.39039
 Alpha  occ. eigenvalues --   -0.39039  -0.38848  -0.38846  -0.38297  -0.38297
 Alpha  occ. eigenvalues --   -0.37839  -0.37745  -0.37745  -0.37704  -0.37614
 Alpha  occ. eigenvalues --   -0.37390  -0.37390  -0.37209  -0.37062  -0.37008
 Alpha  occ. eigenvalues --   -0.36359  -0.36359  -0.36276  -0.36276  -0.35727
 Alpha  occ. eigenvalues --   -0.35393  -0.35142  -0.35142  -0.34992  -0.34831
 Alpha  occ. eigenvalues --   -0.34579  -0.34579  -0.34414  -0.34414  -0.34319
 Alpha  occ. eigenvalues --   -0.34253  -0.33573  -0.33556  -0.33512  -0.33501
 Alpha  occ. eigenvalues --   -0.33501  -0.33460  -0.33017  -0.33017  -0.32895
 Alpha  occ. eigenvalues --   -0.32498  -0.32498  -0.32183  -0.32183  -0.31994
 Alpha  occ. eigenvalues --   -0.31322  -0.31322  -0.31268  -0.31177  -0.30807
 Alpha  occ. eigenvalues --   -0.30807  -0.30684  -0.30684  -0.30514  -0.30437
 Alpha  occ. eigenvalues --   -0.30354  -0.30138  -0.29964  -0.29964  -0.29876
 Alpha  occ. eigenvalues --   -0.29875  -0.29634  -0.29634  -0.29467  -0.29438
 Alpha  occ. eigenvalues --   -0.29209  -0.29209  -0.28959  -0.28832  -0.28832
 Alpha  occ. eigenvalues --   -0.28674  -0.28539  -0.28137  -0.28069  -0.28034
 Alpha  occ. eigenvalues --   -0.28034  -0.27769  -0.27751  -0.27734  -0.27734
 Alpha  occ. eigenvalues --   -0.27578  -0.27459  -0.27459  -0.27414  -0.27400
 Alpha  occ. eigenvalues --   -0.27400  -0.26961  -0.26858  -0.26854  -0.26795
 Alpha  occ. eigenvalues --   -0.26795  -0.26793  -0.26598  -0.26598  -0.26281
 Alpha  occ. eigenvalues --   -0.26280  -0.26089  -0.26089  -0.26073  -0.26073
 Alpha  occ. eigenvalues --   -0.25851  -0.25802  -0.25802  -0.25762  -0.25754
 Alpha  occ. eigenvalues --   -0.25731  -0.25666  -0.25022  -0.25022  -0.24982
 Alpha  occ. eigenvalues --   -0.24810  -0.24687  -0.24665  -0.24665  -0.24643
 Alpha  occ. eigenvalues --   -0.24643  -0.24557  -0.24519  -0.24519  -0.24516
 Alpha  occ. eigenvalues --   -0.24516  -0.24494  -0.24344  -0.24343  -0.24266
 Alpha  occ. eigenvalues --   -0.24186  -0.24103  -0.23875  -0.23824  -0.23697
 Alpha  occ. eigenvalues --   -0.23697  -0.23510  -0.23510  -0.23470  -0.23470
 Alpha virt. eigenvalues --   -0.23441  -0.23441  -0.22944  -0.22827  -0.22827
 Alpha virt. eigenvalues --   -0.22325  -0.22324  -0.20132  -0.19571  -0.19546
 Alpha virt. eigenvalues --   -0.15077  -0.15060  -0.14601  -0.13718  -0.13718
 Alpha virt. eigenvalues --   -0.13644  -0.12396  -0.12396  -0.12351  -0.10717
 Alpha virt. eigenvalues --   -0.10717  -0.10445  -0.10445  -0.07160  -0.06609
 Alpha virt. eigenvalues --   -0.06285  -0.05961  -0.05961  -0.05418  -0.05418
 Alpha virt. eigenvalues --   -0.04487  -0.04333  -0.03412  -0.03059  -0.03059
 Alpha virt. eigenvalues --   -0.02937  -0.02547  -0.01501  -0.01194  -0.01004
 Alpha virt. eigenvalues --   -0.00982  -0.00615  -0.00362  -0.00362   0.01125
 Alpha virt. eigenvalues --    0.02352   0.02352   0.03429   0.03429   0.04751
 Alpha virt. eigenvalues --    0.05430   0.05430   0.05660   0.05660   0.05982
 Alpha virt. eigenvalues --    0.06036   0.06042   0.06588   0.09100   0.10875
 Alpha virt. eigenvalues --    0.10875   0.11595   0.11595   0.11646   0.11646
 Alpha virt. eigenvalues --    0.14575   0.15052   0.15509   0.16597   0.16700
 Alpha virt. eigenvalues --    0.16700   0.20625   0.20625   0.22567   0.22567
 Alpha virt. eigenvalues --    0.22949   0.23761   0.25354   0.25354   0.27467
 Alpha virt. eigenvalues --    0.31265   0.31376   0.32054   0.36463   0.36463
 Alpha virt. eigenvalues --    0.47445   0.54558   0.59847   0.69272   0.69272
 Alpha virt. eigenvalues --    0.70127   0.84377   0.84377   0.89395   1.01375
 Alpha virt. eigenvalues --    1.08543   1.12895   1.37686   1.40039   1.40039
 Alpha virt. eigenvalues --    1.50652   1.63988   1.64182   1.64182   1.78516
 Alpha virt. eigenvalues --    1.78516   1.82651   1.97742   1.97742   2.05863
 Alpha virt. eigenvalues --    2.48460   5.24957
          Condensed to atoms (all electrons):
               1          2          3          4          5          6
     1  Pt  25.284481  -2.431106  -1.195676  -3.617627  -1.195676  -2.431106
     2  Pt  -2.431106  16.879321  -0.037316  -0.394936  -2.431106  -0.418205
     3  Pt  -1.195676  -0.037316  25.284481  -3.617627  -0.673364  -2.431106
     4  Pt  -3.617627  -0.394936  -3.617627  33.511641  -3.617627  -0.394936
     5  Pt  -1.195676  -2.431106  -0.673364  -3.617627  25.284481  -0.037316
     6  Pt  -2.431106  -0.418205  -2.431106  -0.394936  -0.037316  16.879321
     7  Pt  -0.037316  -0.010496  -2.431106  -0.394936  -0.037316  -0.418205
     8  Pt  -0.673364  -0.037316  -1.195676  -3.617627  -1.195676  -0.037316
     9  Pt  -0.037316  -0.418205  -0.037316  -0.394936  -2.431106  -0.010496
    10  Pt  -1.096065  -0.468616  -1.096065  -1.698362  -0.445088   0.592029
    11  Pt  -1.096065   0.592029  -0.445088  -1.698362  -1.096065  -0.468616
    12  Pt  -0.445088  -0.012739  -1.096065  -1.698362  -0.445088  -0.468616
    13  Pt  -0.445088  -0.468616  -0.445088  -1.698362  -1.096065  -0.012739
    14  Pt  -0.505967  -0.230371  -0.505967  -0.371311  -0.505967  -0.230371
    15  Pt   0.031234   0.021862   0.031234  -0.009507   0.031234   0.021862
    16  Pt  -0.007503  -0.000869  -0.007503  -0.005490   0.000978  -0.006632
    17  Pt  -0.007503  -0.006632   0.000978  -0.005490  -0.007503  -0.000869
    18  Pt   0.000978   0.001512  -0.007503  -0.005490   0.000978  -0.000869
    19  Pt   0.000978  -0.000869   0.000978  -0.005490  -0.007503   0.001512
    20  Pt  -0.000337  -0.000090  -0.000337  -0.000113  -0.000030  -0.000629
    21  Pt  -0.001090  -0.000337  -0.000136  -0.000338  -0.000136  -0.000337
    22  Pt  -0.000337  -0.000629  -0.000030  -0.000113  -0.000337  -0.000090
    23  Pt  -0.000136  -0.000030  -0.001090  -0.000338  -0.000060  -0.000337
    24  Pt  -0.000030  -0.000090  -0.000030  -0.000113  -0.000337   0.000025
    25  Pt  -0.000338  -0.000113  -0.000338  -0.001637  -0.000338  -0.000113
    26  Pt  -0.000136  -0.000337  -0.000060  -0.000338  -0.001090  -0.000030
    27  Pt  -0.000030   0.000025  -0.000337  -0.000113  -0.000030  -0.000090
    28  Pt  -0.000060  -0.000030  -0.000136  -0.000338  -0.000136  -0.000030
               7          8          9         10         11         12
     1  Pt  -0.037316  -0.673364  -0.037316  -1.096065  -1.096065  -0.445088
     2  Pt  -0.010496  -0.037316  -0.418205  -0.468616   0.592029  -0.012739
     3  Pt  -2.431106  -1.195676  -0.037316  -1.096065  -0.445088  -1.096065
     4  Pt  -0.394936  -3.617627  -0.394936  -1.698362  -1.698362  -1.698362
     5  Pt  -0.037316  -1.195676  -2.431106  -0.445088  -1.096065  -0.445088
     6  Pt  -0.418205  -0.037316  -0.010496   0.592029  -0.468616  -0.468616
     7  Pt  16.879321  -2.431106  -0.418205  -0.468616  -0.012739   0.592029
     8  Pt  -2.431106  25.284481  -2.431106  -0.445088  -0.445088  -1.096065
     9  Pt  -0.418205  -2.431106  16.879321  -0.012739  -0.468616  -0.468616
    10  Pt  -0.468616  -0.445088  -0.012739  16.508664  -0.502257  -0.502257
    11  Pt  -0.012739  -0.445088  -0.468616  -0.502257  16.508664  -0.219283
    12  Pt   0.592029  -1.096065  -0.468616  -0.502257  -0.219283  16.508664
    13  Pt  -0.468616  -1.096065   0.592029  -0.219283  -0.502257  -0.502257
    14  Pt  -0.230371  -0.505967  -0.230371   0.000731   0.000731   0.000731
    15  Pt   0.021862   0.031234   0.021862  -0.108053  -0.108053  -0.108053
    16  Pt  -0.000869   0.000978   0.001512  -0.153043  -0.001129  -0.001129
    17  Pt   0.001512   0.000978  -0.000869  -0.001129  -0.153043   0.061569
    18  Pt  -0.006632  -0.007503  -0.000869  -0.001129   0.061569  -0.153043
    19  Pt  -0.000869  -0.007503  -0.006632   0.061569  -0.001129  -0.001129
    20  Pt  -0.000090  -0.000030   0.000025  -0.006632  -0.000869  -0.000869
    21  Pt  -0.000030  -0.000060  -0.000030  -0.007503  -0.007503   0.000978
    22  Pt   0.000025  -0.000030  -0.000090  -0.000869  -0.006632   0.001512
    23  Pt  -0.000337  -0.000136  -0.000030  -0.007503   0.000978  -0.007503
    24  Pt  -0.000090  -0.000337  -0.000629   0.001512  -0.000869  -0.000869
    25  Pt  -0.000113  -0.000338  -0.000113  -0.005490  -0.005490  -0.005490
    26  Pt  -0.000030  -0.000136  -0.000337   0.000978  -0.007503   0.000978
    27  Pt  -0.000629  -0.000337  -0.000090  -0.000869   0.001512  -0.006632
    28  Pt  -0.000337  -0.001090  -0.000337   0.000978   0.000978  -0.007503
              13         14         15         16         17         18
     1  Pt  -0.445088  -0.505967   0.031234  -0.007503  -0.007503   0.000978
     2  Pt  -0.468616  -0.230371   0.021862  -0.000869  -0.006632   0.001512
     3  Pt  -0.445088  -0.505967   0.031234  -0.007503   0.000978  -0.007503
     4  Pt  -1.698362  -0.371311  -0.009507  -0.005490  -0.005490  -0.005490
     5  Pt  -1.096065  -0.505967   0.031234   0.000978  -0.007503   0.000978
     6  Pt  -0.012739  -0.230371   0.021862  -0.006632  -0.000869  -0.000869
     7  Pt  -0.468616  -0.230371   0.021862  -0.000869   0.001512  -0.006632
     8  Pt  -1.096065  -0.505967   0.031234   0.000978   0.000978  -0.007503
     9  Pt   0.592029  -0.230371   0.021862   0.001512  -0.000869  -0.000869
    10  Pt  -0.219283   0.000731  -0.108053  -0.153043  -0.001129  -0.001129
    11  Pt  -0.502257   0.000731  -0.108053  -0.001129  -0.153043   0.061569
    12  Pt  -0.502257   0.000731  -0.108053  -0.001129   0.061569  -0.153043
    13  Pt  16.508664   0.000731  -0.108053   0.061569  -0.001129  -0.001129
    14  Pt   0.000731  13.999288  -1.270192  -0.108053  -0.108053  -0.108053
    15  Pt  -0.108053  -1.270192  13.999288   0.000731   0.000731   0.000731
    16  Pt   0.061569  -0.108053   0.000731  16.508664  -0.502257  -0.502257
    17  Pt  -0.001129  -0.108053   0.000731  -0.502257  16.508664  -0.219283
    18  Pt  -0.001129  -0.108053   0.000731  -0.502257  -0.219283  16.508664
    19  Pt  -0.153043  -0.108053   0.000731  -0.219283  -0.502257  -0.502257
    20  Pt   0.001512   0.021862  -0.230371   0.592029  -0.468616  -0.468616
    21  Pt   0.000978   0.031234  -0.505967  -1.096065  -1.096065  -0.445088
    22  Pt  -0.000869   0.021862  -0.230371  -0.468616   0.592029  -0.012739
    23  Pt   0.000978   0.031234  -0.505967  -1.096065  -0.445088  -1.096065
    24  Pt  -0.006632   0.021862  -0.230371  -0.012739  -0.468616  -0.468616
    25  Pt  -0.005490  -0.009507  -0.371311  -1.698362  -1.698362  -1.698362
    26  Pt  -0.007503   0.031234  -0.505967  -0.445088  -1.096065  -0.445088
    27  Pt  -0.000869   0.021862  -0.230371  -0.468616  -0.012739   0.592029
    28  Pt  -0.007503   0.031234  -0.505967  -0.445088  -0.445088  -1.096065
              19         20         21         22         23         24
     1  Pt   0.000978  -0.000337  -0.001090  -0.000337  -0.000136  -0.000030
     2  Pt  -0.000869  -0.000090  -0.000337  -0.000629  -0.000030  -0.000090
     3  Pt   0.000978  -0.000337  -0.000136  -0.000030  -0.001090  -0.000030
     4  Pt  -0.005490  -0.000113  -0.000338  -0.000113  -0.000338  -0.000113
     5  Pt  -0.007503  -0.000030  -0.000136  -0.000337  -0.000060  -0.000337
     6  Pt   0.001512  -0.000629  -0.000337  -0.000090  -0.000337   0.000025
     7  Pt  -0.000869  -0.000090  -0.000030   0.000025  -0.000337  -0.000090
     8  Pt  -0.007503  -0.000030  -0.000060  -0.000030  -0.000136  -0.000337
     9  Pt  -0.006632   0.000025  -0.000030  -0.000090  -0.000030  -0.000629
    10  Pt   0.061569  -0.006632  -0.007503  -0.000869  -0.007503   0.001512
    11  Pt  -0.001129  -0.000869  -0.007503  -0.006632   0.000978  -0.000869
    12  Pt  -0.001129  -0.000869   0.000978   0.001512  -0.007503  -0.000869
    13  Pt  -0.153043   0.001512   0.000978  -0.000869   0.000978  -0.006632
    14  Pt  -0.108053   0.021862   0.031234   0.021862   0.031234   0.021862
    15  Pt   0.000731  -0.230371  -0.505967  -0.230371  -0.505967  -0.230371
    16  Pt  -0.219283   0.592029  -1.096065  -0.468616  -1.096065  -0.012739
    17  Pt  -0.502257  -0.468616  -1.096065   0.592029  -0.445088  -0.468616
    18  Pt  -0.502257  -0.468616  -0.445088  -0.012739  -1.096065  -0.468616
    19  Pt  16.508664  -0.012739  -0.445088  -0.468616  -0.445088   0.592029
    20  Pt  -0.012739  16.879321  -2.431106  -0.418205  -2.431106  -0.010496
    21  Pt  -0.445088  -2.431106  25.284481  -2.431106  -1.195676  -0.037316
    22  Pt  -0.468616  -0.418205  -2.431106  16.879321  -0.037316  -0.418205
    23  Pt  -0.445088  -2.431106  -1.195676  -0.037316  25.284481  -0.037316
    24  Pt   0.592029  -0.010496  -0.037316  -0.418205  -0.037316  16.879321
    25  Pt  -1.698362  -0.394936  -3.617627  -0.394936  -3.617627  -0.394936
    26  Pt  -1.096065  -0.037316  -1.195676  -2.431106  -0.673364  -2.431106
    27  Pt  -0.468616  -0.418205  -0.037316  -0.010496  -2.431106  -0.418205
    28  Pt  -1.096065  -0.037316  -0.673364  -0.037316  -1.195676  -2.431106
              25         26         27         28
     1  Pt  -0.000338  -0.000136  -0.000030  -0.000060
     2  Pt  -0.000113  -0.000337   0.000025  -0.000030
     3  Pt  -0.000338  -0.000060  -0.000337  -0.000136
     4  Pt  -0.001637  -0.000338  -0.000113  -0.000338
     5  Pt  -0.000338  -0.001090  -0.000030  -0.000136
     6  Pt  -0.000113  -0.000030  -0.000090  -0.000030
     7  Pt  -0.000113  -0.000030  -0.000629  -0.000337
     8  Pt  -0.000338  -0.000136  -0.000337  -0.001090
     9  Pt  -0.000113  -0.000337  -0.000090  -0.000337
    10  Pt  -0.005490   0.000978  -0.000869   0.000978
    11  Pt  -0.005490  -0.007503   0.001512   0.000978
    12  Pt  -0.005490   0.000978  -0.006632  -0.007503
    13  Pt  -0.005490  -0.007503  -0.000869  -0.007503
    14  Pt  -0.009507   0.031234   0.021862   0.031234
    15  Pt  -0.371311  -0.505967  -0.230371  -0.505967
    16  Pt  -1.698362  -0.445088  -0.468616  -0.445088
    17  Pt  -1.698362  -1.096065  -0.012739  -0.445088
    18  Pt  -1.698362  -0.445088   0.592029  -1.096065
    19  Pt  -1.698362  -1.096065  -0.468616  -1.096065
    20  Pt  -0.394936  -0.037316  -0.418205  -0.037316
    21  Pt  -3.617627  -1.195676  -0.037316  -0.673364
    22  Pt  -0.394936  -2.431106  -0.010496  -0.037316
    23  Pt  -3.617627  -0.673364  -2.431106  -1.195676
    24  Pt  -0.394936  -2.431106  -0.418205  -2.431106
    25  Pt  33.511641  -3.617627  -0.394936  -3.617627
    26  Pt  -3.617627  25.284481  -0.037316  -1.195676
    27  Pt  -0.394936  -0.037316  16.879321  -2.431106
    28  Pt  -3.617627  -1.195676  -2.431106  25.284481
 Mulliken charges:
               1
     1  Pt  -0.092710
     2  Pt  -0.125697
     3  Pt  -0.092710
     4  Pt  -0.261726
     5  Pt  -0.092710
     6  Pt  -0.125697
     7  Pt  -0.125697
     8  Pt  -0.092710
     9  Pt  -0.125697
    10  Pt   0.080196
    11  Pt   0.080196
    12  Pt   0.080196
    13  Pt   0.080196
    14  Pt   0.813975
    15  Pt   0.813975
    16  Pt   0.080196
    17  Pt   0.080196
    18  Pt   0.080196
    19  Pt   0.080196
    20  Pt  -0.125697
    21  Pt  -0.092710
    22  Pt  -0.125697
    23  Pt  -0.092710
    24  Pt  -0.125697
    25  Pt  -0.261726
    26  Pt  -0.092710
    27  Pt  -0.125697
    28  Pt  -0.092710
 Sum of Mulliken charges =  -0.00120
 Mulliken charges with hydrogens summed into heavy atoms:
               1
     1  Pt  -0.092710
     2  Pt  -0.125697
     3  Pt  -0.092710
     4  Pt  -0.261726
     5  Pt  -0.092710
     6  Pt  -0.125697
     7  Pt  -0.125697
     8  Pt  -0.092710
     9  Pt  -0.125697
    10  Pt   0.080196
    11  Pt   0.080196
    12  Pt   0.080196
    13  Pt   0.080196
    14  Pt   0.813975
    15  Pt   0.813975
    16  Pt   0.080196
    17  Pt   0.080196
    18  Pt   0.080196
    19  Pt   0.080196
    20  Pt  -0.125697
    21  Pt  -0.092710
    22  Pt  -0.125697
    23  Pt  -0.092710
    24  Pt  -0.125697
    25  Pt  -0.261726
    26  Pt  -0.092710
    27  Pt  -0.125697
    28  Pt  -0.092710
 Electronic spatial extent (au):  <R**2>=          29351.0970
 Charge=             -0.0012 electrons
 Dipole moment (field-independent basis, Debye):
    X=              0.0000    Y=              0.0000    Z=              0.0000  Tot=              0.0000
 Quadrupole moment (field-independent basis, Debye-Ang):
   XX=           -671.4216   YY=           -671.4216   ZZ=           -815.9676
   XY=              0.0000   XZ=              0.0000   YZ=              0.0000
 Traceless Quadrupole moment (field-independent basis, Debye-Ang):
   XX=             48.1820   YY=             48.1820   ZZ=            -96.3640
   XY=              0.0000   XZ=              0.0000   YZ=              0.0000
 Octapole moment (field-independent basis, Debye-Ang**2):
  XXX=              0.0000  YYY=              0.0000  ZZZ=              0.0000  XYY=              0.0000
  XXY=              0.0000  XXZ=              0.0000  XZZ=              0.0000  YZZ=              0.0000
  YYZ=              0.0000  XYZ=              0.0000
 Hexadecapole moment (field-independent basis, Debye-Ang**3):
 XXXX=         -19501.9861 YYYY=         -19501.9861 ZZZZ=         -84989.7912 XXXY=              0.0000
 XXXZ=              0.0000 YYYX=              0.0000 YYYZ=              0.0000 ZZZX=              0.0000
 ZZZY=              0.0000 XXYY=          -6360.9661 XXZZ=         -18489.1891 YYZZ=         -18489.1891
 XXYZ=              0.0000 YYXZ=              0.0000 ZZXY=              0.0000
 N-N= 3.702688120031D+03 E-N=-9.292630566482D+03  KE= 5.808229163782D+02
 Symmetry AG   KE= 8.684592071096D+01
 Symmetry B1G  KE= 6.273413969925D+01
 Symmetry B2G  KE= 6.946167471708D+01
 Symmetry B3G  KE= 6.946167471708D+01
 Symmetry AU   KE= 6.287238699271D+01
 Symmetry B1U  KE= 8.710384655127D+01
 Symmetry B2U  KE= 7.117163649494D+01
 Symmetry B3U  KE= 7.117163649494D+01
 No NMR shielding tensors so no spin-rotation constants.
 Leave Link  601 at Wed Feb 10 15:15:08 2016, MaxMem=    32768000 cpu:         2.1
 (Enter /home/palacios/gaussian/g09/l9999.exe)
 1\1\GINC-ASUS\SP\RSVWN\Gen\Pt28\PALACIOS\10-Feb-2016\0\\#p lsda/gen ps
 eudo=read gfinput Scf=(conver=6,dsymm)\\Pt9-Pt4-Pt-Pt-Pt4-Pt9\\0,1\Pt,
 0,-1.96,1.96,9.46\Pt,0,-3.92,0.,9.46\Pt,0,1.96,1.96,9.46\Pt,0,0.,0.,9.
 46\Pt,0,-1.96,-1.96,9.46\Pt,0,0.,3.92,9.46\Pt,0,3.92,0.,9.46\Pt,0,1.96
 ,-1.96,9.46\Pt,0,0.,-3.92,9.46\Pt,0,0.,1.96,7.5\Pt,0,-1.96,0.,7.5\Pt,0
 ,1.96,0.,7.5\Pt,0,0.,-1.96,7.5\Pt,0,0.,0.,5.54\Pt,0,0.,0.,3.08\Pt,0,0.
 ,1.96,1.12\Pt,0,-1.96,0.,1.12\Pt,0,1.96,0.,1.12\Pt,0,0.,-1.96,1.12\Pt,
 0,0.,3.92,-0.84\Pt,0,-1.96,1.96,-0.84\Pt,0,-3.92,0.,-0.84\Pt,0,1.96,1.
 96,-0.84\Pt,0,0.,-3.92,-0.84\Pt,0,0.,0.,-0.84\Pt,0,-1.96,-1.96,-0.84\P
 t,0,3.92,0.,-0.84\Pt,0,1.96,-1.96,-0.84\\Version=ES64L-G09RevD.01\Stat
 e=1-A1G\HF=-764.3464232\RMSD=5.042e-07\Dipole=0.,0.,0.\Quadrupole=35.8
 221525,35.8221525,-71.6443049,0.,0.,0.\PG=D04H [C4(Pt1Pt1.Pt1Pt1),2SGV
 (Pt8),2SGD(Pt4)]\\@


    UPON JULIA'S CLOTHES

 WHENAS IN SILKS MY JULIA GOES,
 THEN, THEN, METHINKS, HOW SWEETLY FLOWS
 THAT LIQUEFACTION OF HER CLOTHES.

 NEXT, WHEN I CAST MINE EYES, AND SEE
 THAT BRAVE VIBRATION, EACH WAY FREE,
 O, HOW THAT GLITTERING TAKETH ME!
     -- ROBERT HERRICK, 1648
 Job cpu time:       0 days  0 hours 27 minutes 15.2 seconds.
 File lengths (MBytes):  RWF=     36 Int=      0 D2E=      0 Chk=      3 Scr=      1
 Normal termination of Gaussian 09 at Wed Feb 10 15:15:08 2016.
