 Entering Gaussian System, Link 0=g09
 Input=Au4-Au-Au-Au4.gjf
 Output=Au4-Au-Au-Au4.log
 Initial command:
 /home/palacios/gaussian/g09/l1.exe "/home/palacios/scratch/Gau-28675.inp" -scrdir="/home/palacios/scratch/"
 Entering Link 1 = /home/palacios/gaussian/g09/l1.exe PID=     28677.
  
 Copyright (c) 1988,1990,1992,1993,1995,1998,2003,2009,2013,
            Gaussian, Inc.  All Rights Reserved.
  
 This is part of the Gaussian(R) 09 program.  It is based on
 the Gaussian(R) 03 system (copyright 2003, Gaussian, Inc.),
 the Gaussian(R) 98 system (copyright 1998, Gaussian, Inc.),
 the Gaussian(R) 94 system (copyright 1995, Gaussian, Inc.),
 the Gaussian 92(TM) system (copyright 1992, Gaussian, Inc.),
 the Gaussian 90(TM) system (copyright 1990, Gaussian, Inc.),
 the Gaussian 88(TM) system (copyright 1988, Gaussian, Inc.),
 the Gaussian 86(TM) system (copyright 1986, Carnegie Mellon
 University), and the Gaussian 82(TM) system (copyright 1983,
 Carnegie Mellon University). Gaussian is a federally registered
 trademark of Gaussian, Inc.
  
 This software contains proprietary and confidential information,
 including trade secrets, belonging to Gaussian, Inc.
  
 This software is provided under written license and may be
 used, copied, transmitted, or stored only in accord with that
 written license.
  
 The following legend is applicable only to US Government
 contracts under FAR:
  
                    RESTRICTED RIGHTS LEGEND
  
 Use, reproduction and disclosure by the US Government is
 subject to restrictions as set forth in subparagraphs (a)
 and (c) of the Commercial Computer Software - Restricted
 Rights clause in FAR 52.227-19.
  
 Gaussian, Inc.
 340 Quinnipiac St., Bldg. 40, Wallingford CT 06492
  
  
 ---------------------------------------------------------------
 Warning -- This program may not be used in any manner that
 competes with the business of Gaussian, Inc. or will provide
 assistance to any competitor of Gaussian, Inc.  The licensee
 of this program is prohibited from giving any competitor of
 Gaussian, Inc. access to this program.  By using this program,
 the user acknowledges that Gaussian, Inc. is engaged in the
 business of creating and licensing software in the field of
 computational chemistry and represents and warrants to the
 licensee that it is not a competitor of Gaussian, Inc. and that
 it will not use this program in any manner prohibited above.
 ---------------------------------------------------------------
  

 Cite this work as:
 Gaussian 09, Revision D.01,
 M. J. Frisch, G. W. Trucks, H. B. Schlegel, G. E. Scuseria, 
 M. A. Robb, J. R. Cheeseman, G. Scalmani, V. Barone, B. Mennucci, 
 G. A. Petersson, H. Nakatsuji, M. Caricato, X. Li, H. P. Hratchian, 
 A. F. Izmaylov, J. Bloino, G. Zheng, J. L. Sonnenberg, M. Hada, 
 M. Ehara, K. Toyota, R. Fukuda, J. Hasegawa, M. Ishida, T. Nakajima, 
 Y. Honda, O. Kitao, H. Nakai, T. Vreven, J. A. Montgomery, Jr., 
 J. E. Peralta, F. Ogliaro, M. Bearpark, J. J. Heyd, E. Brothers, 
 K. N. Kudin, V. N. Staroverov, T. Keith, R. Kobayashi, J. Normand, 
 K. Raghavachari, A. Rendell, J. C. Burant, S. S. Iyengar, J. Tomasi, 
 M. Cossi, N. Rega, J. M. Millam, M. Klene, J. E. Knox, J. B. Cross, 
 V. Bakken, C. Adamo, J. Jaramillo, R. Gomperts, R. E. Stratmann, 
 O. Yazyev, A. J. Austin, R. Cammi, C. Pomelli, J. W. Ochterski, 
 R. L. Martin, K. Morokuma, V. G. Zakrzewski, G. A. Voth, 
 P. Salvador, J. J. Dannenberg, S. Dapprich, A. D. Daniels, 
 O. Farkas, J. B. Foresman, J. V. Ortiz, J. Cioslowski, 
 and D. J. Fox, Gaussian, Inc., Wallingford CT, 2013.
 
 ******************************************
 Gaussian 09:  ES64L-G09RevD.01 24-Apr-2013
                10-Feb-2016 
 ******************************************
 %mem=250mb
 %Subst L502 ../bin
 %Subst L101 ../bin
 %NProcShared=1
 Will use up to    1 processors via shared memory.
 -----------------------------------------------------------
 #p lsda/gen pseudo=read gfinput Scf=(dsymm,conver=6,nodamp)
 -----------------------------------------------------------
 1/38=1/1;
 2/12=2,17=6,18=5,40=1/2;
 3/5=7,11=2,16=1,17=8,24=10,25=1,30=1,74=205/1,2,3;
 4//1;
 5/5=2,6=6,17=200,18=-2,38=5/2;
 6/7=2,8=2,9=2,10=2,28=1/1;
 99/5=1,9=1/99;
 Leave Link    1 at Wed Feb 10 15:17:18 2016, MaxMem=    32768000 cpu:         0.0
 (Enter ../bin/l101.exe)
 -------------
 Au4-Au-Au-Au4
 -------------
 Symbolic Z-matrix:
 Charge =  0 Multiplicity = 1
 Au                    2.036     0.        3.37644 
 Au                    0.        2.036     3.37644 
 Au                   -2.036     0.        3.37644 
 Au                    0.       -2.036     3.37644 
 Au                    0.        0.        1.3976 
 Au                    0.        0.       -1.3976 
 Au                   -2.036     0.       -3.37644 
 Au                    0.       -2.036    -3.37644 
 Au                    2.036     0.       -3.37644 
 Au                    0.        2.036    -3.37644 
 
 NAtoms=     10 NQM=       10 NQMF=       0 NMMI=      0 NMMIF=      0
                NMic=       0 NMicF=      0.
                    Isotopes and Nuclear Properties:
 (Nuclear quadrupole moments (NQMom) in fm**2, nuclear magnetic moments (NMagM)
  in nuclear magnetons)

  Atom         1           2           3           4           5           6           7           8           9          10
 IAtWgt=         197         197         197         197         197         197         197         197         197         197
 AtmWgt= 196.9666000 196.9666000 196.9666000 196.9666000 196.9666000 196.9666000 196.9666000 196.9666000 196.9666000 196.9666000
 NucSpn=           3           3           3           3           3           3           3           3           3           3
 AtZEff=   0.0000000   0.0000000   0.0000000   0.0000000   0.0000000   0.0000000   0.0000000   0.0000000   0.0000000   0.0000000
 NQMom=   54.7000000  54.7000000  54.7000000  54.7000000  54.7000000  54.7000000  54.7000000  54.7000000  54.7000000  54.7000000
 NMagM=    0.1481590   0.1481590   0.1481590   0.1481590   0.1481590   0.1481590   0.1481590   0.1481590   0.1481590   0.1481590
 AtZNuc=  79.0000000  79.0000000  79.0000000  79.0000000  79.0000000  79.0000000  79.0000000  79.0000000  79.0000000  79.0000000
 Leave Link  101 at Wed Feb 10 15:17:18 2016, MaxMem=    32768000 cpu:         0.0
 (Enter /home/palacios/gaussian/g09/l202.exe)
                          Input orientation:                          
 ---------------------------------------------------------------------
 Center     Atomic      Atomic             Coordinates (Angstroms)
 Number     Number       Type             X           Y           Z
 ---------------------------------------------------------------------
      1         79           0        2.036000    0.000000    3.376438
      2         79           0        0.000000    2.036000    3.376438
      3         79           0       -2.036000    0.000000    3.376438
      4         79           0        0.000000   -2.036000    3.376438
      5         79           0        0.000000    0.000000    1.397597
      6         79           0        0.000000    0.000000   -1.397597
      7         79           0       -2.036000    0.000000   -3.376438
      8         79           0        0.000000   -2.036000   -3.376438
      9         79           0        2.036000    0.000000   -3.376438
     10         79           0        0.000000    2.036000   -3.376438
 ---------------------------------------------------------------------
                    Distance matrix (angstroms):
                    1          2          3          4          5
     1  Au   0.000000
     2  Au   2.879339   0.000000
     3  Au   4.072000   2.879339   0.000000
     4  Au   2.879339   4.072000   2.879339   0.000000
     5  Au   2.839209   2.839209   2.839209   2.839209   0.000000
     6  Au   5.190058   5.190058   5.190058   5.190058   2.795194
     7  Au   7.885589   7.341112   6.752876   7.341112   5.190058
     8  Au   7.341112   7.885589   7.341112   6.752876   5.190058
     9  Au   6.752876   7.341112   7.885589   7.341112   5.190058
    10  Au   7.341112   6.752876   7.341112   7.885589   5.190058
                    6          7          8          9         10
     6  Au   0.000000
     7  Au   2.839209   0.000000
     8  Au   2.839209   2.879339   0.000000
     9  Au   2.839209   4.072000   2.879339   0.000000
    10  Au   2.839209   2.879339   4.072000   2.879339   0.000000
 Stoichiometry    Au10
 Framework group  D4H[C4(Au.Au),2SGV(Au4)]
 Deg. of freedom     3
 Full point group                 D4H     NOp  16
 Largest Abelian subgroup         D2H     NOp   8
 Largest concise Abelian subgroup D2H     NOp   8
                         Standard orientation:                         
 ---------------------------------------------------------------------
 Center     Atomic      Atomic             Coordinates (Angstroms)
 Number     Number       Type             X           Y           Z
 ---------------------------------------------------------------------
      1         79           0        0.000000    2.036000    3.376438
      2         79           0       -2.036000    0.000000    3.376438
      3         79           0        0.000000   -2.036000    3.376438
      4         79           0        2.036000    0.000000    3.376438
      5         79           0        0.000000    0.000000    1.397597
      6         79           0        0.000000    0.000000   -1.397597
      7         79           0        0.000000   -2.036000   -3.376438
      8         79           0        2.036000    0.000000   -3.376438
      9         79           0        0.000000    2.036000   -3.376438
     10         79           0       -2.036000    0.000000   -3.376438
 ---------------------------------------------------------------------
 Rotational constants (GHZ):      0.0773712      0.0229725      0.0229725
 Leave Link  202 at Wed Feb 10 15:17:18 2016, MaxMem=    32768000 cpu:         0.0
 (Enter /home/palacios/gaussian/g09/l301.exe)
 General basis read from cards:  (5D, 7F)
 Centers:       1      2      3      4      7      8      9     10
 S 3 1.00
     Exponent=  4.4090000000D-01 Coefficients= -7.4780000000D-01
     Exponent=  2.6260000000D-01 Coefficients=  8.1760000000D-01
     Exponent=  6.1700000000D-02 Coefficients=  8.1130000000D-01
 ****
 Centers:       5      6
 lanl2dz
 ****
 ======================================================================================================
                                       Pseudopotential Parameters
 ======================================================================================================
  Center     Atomic      Valence      Angular      Power
  Number     Number     Electrons     Momentum     of R      Exponent        Coefficient   SO-Coeffient
 ======================================================================================================
    1         79            1
                                      F and up 
                                                     2        1.0000000        0.00000000    0.00000000
                                      S - F
                                                     2        0.9000000       12.02000000    0.00000000
                                                     2        0.4500000       -2.88400000    0.00000000
                                      P - F
                                                     2        0.9000000       -2.81500000    0.00000000
                                                     2        0.4500000        1.97900000    0.00000000
                                      D - F
                                                     2        0.4500000       57.03000000    0.00000000
                                                     2        0.2250000       -3.46800000    0.00000000
    2         79            1
                                      F and up 
                                                     2        1.0000000        0.00000000    0.00000000
                                      S - F
                                                     2        0.9000000       12.02000000    0.00000000
                                                     2        0.4500000       -2.88400000    0.00000000
                                      P - F
                                                     2        0.9000000       -2.81500000    0.00000000
                                                     2        0.4500000        1.97900000    0.00000000
                                      D - F
                                                     2        0.4500000       57.03000000    0.00000000
                                                     2        0.2250000       -3.46800000    0.00000000
    3         79            1
                                      F and up 
                                                     2        1.0000000        0.00000000    0.00000000
                                      S - F
                                                     2        0.9000000       12.02000000    0.00000000
                                                     2        0.4500000       -2.88400000    0.00000000
                                      P - F
                                                     2        0.9000000       -2.81500000    0.00000000
                                                     2        0.4500000        1.97900000    0.00000000
                                      D - F
                                                     2        0.4500000       57.03000000    0.00000000
                                                     2        0.2250000       -3.46800000    0.00000000
    4         79            1
                                      F and up 
                                                     2        1.0000000        0.00000000    0.00000000
                                      S - F
                                                     2        0.9000000       12.02000000    0.00000000
                                                     2        0.4500000       -2.88400000    0.00000000
                                      P - F
                                                     2        0.9000000       -2.81500000    0.00000000
                                                     2        0.4500000        1.97900000    0.00000000
                                      D - F
                                                     2        0.4500000       57.03000000    0.00000000
                                                     2        0.2250000       -3.46800000    0.00000000
    5         79           19
                                      G and up 
                                                     1      622.6287956      -60.00000000    0.00000000
                                                     2      136.2843607     -555.52923120    0.00000000
                                                     2       33.1549781     -168.00197850    0.00000000
                                                     2        9.9894895      -63.03998750    0.00000000
                                                     2        3.0481312       -4.25166810    0.00000000
                                      S - G
                                                     0      194.7374304        3.00000000    0.00000000
                                                     1      351.5327447       38.60208800    0.00000000
                                                     2      122.3270402      864.83707270    0.00000000
                                                     2       32.0914617      374.99355200    0.00000000
                                                     2        5.2451812      289.79101000    0.00000000
                                                     2        4.4916223     -152.45327730    0.00000000
                                      P - G
                                                     0      420.6158801        2.00000000    0.00000000
                                                     1      109.4417815       73.88856250    0.00000000
                                                     2       34.1714280      326.67298720    0.00000000
                                                     2        5.9879750      126.58145910    0.00000000
                                      D - G
                                                     0      219.2666158        3.00000000    0.00000000
                                                     1      122.7297786       55.67931490    0.00000000
                                                     2       63.1063369      449.19873350    0.00000000
                                                     2       18.3684520      215.02690910    0.00000000
                                                     2        4.4972844       64.08409950    0.00000000
                                      F - G
                                                     0      108.5506037        4.00000000    0.00000000
                                                     1       56.4795527       51.80653350    0.00000000
                                                     2       29.2069159      231.21831130    0.00000000
                                                     2        9.5440543      119.00473860    0.00000000
                                                     2        2.8965118       15.34241880    0.00000000
    6         79           19
                                      G and up 
                                                     1      622.6287956      -60.00000000    0.00000000
                                                     2      136.2843607     -555.52923120    0.00000000
                                                     2       33.1549781     -168.00197850    0.00000000
                                                     2        9.9894895      -63.03998750    0.00000000
                                                     2        3.0481312       -4.25166810    0.00000000
                                      S - G
                                                     0      194.7374304        3.00000000    0.00000000
                                                     1      351.5327447       38.60208800    0.00000000
                                                     2      122.3270402      864.83707270    0.00000000
                                                     2       32.0914617      374.99355200    0.00000000
                                                     2        5.2451812      289.79101000    0.00000000
                                                     2        4.4916223     -152.45327730    0.00000000
                                      P - G
                                                     0      420.6158801        2.00000000    0.00000000
                                                     1      109.4417815       73.88856250    0.00000000
                                                     2       34.1714280      326.67298720    0.00000000
                                                     2        5.9879750      126.58145910    0.00000000
                                      D - G
                                                     0      219.2666158        3.00000000    0.00000000
                                                     1      122.7297786       55.67931490    0.00000000
                                                     2       63.1063369      449.19873350    0.00000000
                                                     2       18.3684520      215.02690910    0.00000000
                                                     2        4.4972844       64.08409950    0.00000000
                                      F - G
                                                     0      108.5506037        4.00000000    0.00000000
                                                     1       56.4795527       51.80653350    0.00000000
                                                     2       29.2069159      231.21831130    0.00000000
                                                     2        9.5440543      119.00473860    0.00000000
                                                     2        2.8965118       15.34241880    0.00000000
    7         79            1
                                      F and up 
                                                     2        1.0000000        0.00000000    0.00000000
                                      S - F
                                                     2        0.9000000       12.02000000    0.00000000
                                                     2        0.4500000       -2.88400000    0.00000000
                                      P - F
                                                     2        0.9000000       -2.81500000    0.00000000
                                                     2        0.4500000        1.97900000    0.00000000
                                      D - F
                                                     2        0.4500000       57.03000000    0.00000000
                                                     2        0.2250000       -3.46800000    0.00000000
    8         79            1
                                      F and up 
                                                     2        1.0000000        0.00000000    0.00000000
                                      S - F
                                                     2        0.9000000       12.02000000    0.00000000
                                                     2        0.4500000       -2.88400000    0.00000000
                                      P - F
                                                     2        0.9000000       -2.81500000    0.00000000
                                                     2        0.4500000        1.97900000    0.00000000
                                      D - F
                                                     2        0.4500000       57.03000000    0.00000000
                                                     2        0.2250000       -3.46800000    0.00000000
    9         79            1
                                      F and up 
                                                     2        1.0000000        0.00000000    0.00000000
                                      S - F
                                                     2        0.9000000       12.02000000    0.00000000
                                                     2        0.4500000       -2.88400000    0.00000000
                                      P - F
                                                     2        0.9000000       -2.81500000    0.00000000
                                                     2        0.4500000        1.97900000    0.00000000
                                      D - F
                                                     2        0.4500000       57.03000000    0.00000000
                                                     2        0.2250000       -3.46800000    0.00000000
   10         79            1
                                      F and up 
                                                     2        1.0000000        0.00000000    0.00000000
                                      S - F
                                                     2        0.9000000       12.02000000    0.00000000
                                                     2        0.4500000       -2.88400000    0.00000000
                                      P - F
                                                     2        0.9000000       -2.81500000    0.00000000
                                                     2        0.4500000        1.97900000    0.00000000
                                      D - F
                                                     2        0.4500000       57.03000000    0.00000000
                                                     2        0.2250000       -3.46800000    0.00000000
 ======================================================================================================
 Ernie: Thresh=  0.10000D-02 Tol=  0.10000D-05 Strict=F.
 Ernie:  2 primitive shells out of 58 were deleted.
 AO basis set in the form of general basis input (Overlap normalization):
      1 0
 S   3 1.00       0.000000000000
      0.4409000000D+00 -0.7477982533D+00
      0.2626000000D+00  0.8175980902D+00
      0.6170000000D-01  0.8112981050D+00
 ****
      2 0
 S   3 1.00       0.000000000000
      0.4409000000D+00 -0.7477982533D+00
      0.2626000000D+00  0.8175980902D+00
      0.6170000000D-01  0.8112981050D+00
 ****
      3 0
 S   3 1.00       0.000000000000
      0.4409000000D+00 -0.7477982533D+00
      0.2626000000D+00  0.8175980902D+00
      0.6170000000D-01  0.8112981050D+00
 ****
      4 0
 S   3 1.00       0.000000000000
      0.4409000000D+00 -0.7477982533D+00
      0.2626000000D+00  0.8175980902D+00
      0.6170000000D-01  0.8112981050D+00
 ****
      5 0
 S   3 1.00       0.000000000000
      0.1595000000D+01 -0.3687038149D+00
      0.5327000000D+00 -0.1034828905D+01
      0.2826000000D+00  0.1945011640D+01
 S   3 1.00       0.000000000000
      0.2809000000D+01 -0.1202156130D+01
      0.1595000000D+01  0.1674158181D+01
      0.5327000000D+00  0.3526593382D+00
 S   1 1.00       0.000000000000
      0.5980000000D-01  0.1000000000D+01
 P   3 1.00       0.000000000000
      0.3684000000D+01 -0.2802680816D+00
      0.1666000000D+01  0.7818397487D+00
      0.5989000000D+00  0.4804775685D+00
 P   2 1.00       0.000000000000
      0.6838000000D+00 -0.9520777209D-01
      0.9770000000D-01  0.1029914698D+01
 P   1 1.00       0.000000000000
      0.2790000000D-01  0.1000000000D+01
 D   2 1.00       0.000000000000
      0.1287000000D+01  0.5844272770D+00
      0.4335000000D+00  0.5298160791D+00
 D   1 1.00       0.000000000000
      0.1396000000D+00  0.1000000000D+01
 ****
      6 0
 S   3 1.00       0.000000000000
      0.1595000000D+01 -0.3687038149D+00
      0.5327000000D+00 -0.1034828905D+01
      0.2826000000D+00  0.1945011640D+01
 S   3 1.00       0.000000000000
      0.2809000000D+01 -0.1202156130D+01
      0.1595000000D+01  0.1674158181D+01
      0.5327000000D+00  0.3526593382D+00
 S   1 1.00       0.000000000000
      0.5980000000D-01  0.1000000000D+01
 P   3 1.00       0.000000000000
      0.3684000000D+01 -0.2802680816D+00
      0.1666000000D+01  0.7818397487D+00
      0.5989000000D+00  0.4804775685D+00
 P   2 1.00       0.000000000000
      0.6838000000D+00 -0.9520777209D-01
      0.9770000000D-01  0.1029914698D+01
 P   1 1.00       0.000000000000
      0.2790000000D-01  0.1000000000D+01
 D   2 1.00       0.000000000000
      0.1287000000D+01  0.5844272770D+00
      0.4335000000D+00  0.5298160791D+00
 D   1 1.00       0.000000000000
      0.1396000000D+00  0.1000000000D+01
 ****
      7 0
 S   3 1.00       0.000000000000
      0.4409000000D+00 -0.7477982533D+00
      0.2626000000D+00  0.8175980902D+00
      0.6170000000D-01  0.8112981050D+00
 ****
      8 0
 S   3 1.00       0.000000000000
      0.4409000000D+00 -0.7477982533D+00
      0.2626000000D+00  0.8175980902D+00
      0.6170000000D-01  0.8112981050D+00
 ****
      9 0
 S   3 1.00       0.000000000000
      0.4409000000D+00 -0.7477982533D+00
      0.2626000000D+00  0.8175980902D+00
      0.6170000000D-01  0.8112981050D+00
 ****
     10 0
 S   3 1.00       0.000000000000
      0.4409000000D+00 -0.7477982533D+00
      0.2626000000D+00  0.8175980902D+00
      0.6170000000D-01  0.8112981050D+00
 ****

 There are    14 symmetry adapted cartesian basis functions of AG  symmetry.
 There are     2 symmetry adapted cartesian basis functions of B1G symmetry.
 There are     6 symmetry adapted cartesian basis functions of B2G symmetry.
 There are     6 symmetry adapted cartesian basis functions of B3G symmetry.
 There are     2 symmetry adapted cartesian basis functions of AU  symmetry.
 There are    14 symmetry adapted cartesian basis functions of B1U symmetry.
 There are     6 symmetry adapted cartesian basis functions of B2U symmetry.
 There are     6 symmetry adapted cartesian basis functions of B3U symmetry.
 There are    12 symmetry adapted basis functions of AG  symmetry.
 There are     2 symmetry adapted basis functions of B1G symmetry.
 There are     6 symmetry adapted basis functions of B2G symmetry.
 There are     6 symmetry adapted basis functions of B3G symmetry.
 There are     2 symmetry adapted basis functions of AU  symmetry.
 There are    12 symmetry adapted basis functions of B1U symmetry.
 There are     6 symmetry adapted basis functions of B2U symmetry.
 There are     6 symmetry adapted basis functions of B3U symmetry.
    52 basis functions,   110 primitive gaussians,    56 cartesian basis functions
    23 alpha electrons       23 beta electrons
       nuclear repulsion energy       115.3199531651 Hartrees.
 IExCor=  205 DFT=T Ex=S Corr=VWN ExCW=0 ScaHFX=  0.000000
 ScaDFX=  1.000000  1.000000  1.000000  1.000000 ScalE2=  1.000000  1.000000
 IRadAn=      0 IRanWt=     -1 IRanGd=            0 ICorTp=0 IEmpDi=  4
 NAtoms=   10 NActive=   10 NUniq=    2 SFac= 4.00D+00 NAtFMM=   60 NAOKFM=F Big=F
 Integral buffers will be    131072 words long.
 Raffenetti 2 integral format.
 Two-electron integral symmetry is turned on.
 Leave Link  301 at Wed Feb 10 15:17:18 2016, MaxMem=    32768000 cpu:         0.0
 (Enter /home/palacios/gaussian/g09/l302.exe)
 NPDir=0 NMtPBC=     1 NCelOv=     1 NCel=       1 NClECP=     1 NCelD=      1
         NCelK=      1 NCelE2=     1 NClLst=     1 CellRange=     0.0.
 One-electron integrals computed using PRISM.
 One-electron integral symmetry used in STVInt
  16 Symmetry operations used in ECPInt.
 ECPInt:  NShTT=     300 NPrTT=    1642 LenC2=     301 LenP2D=    1642.
 LDataN:  DoStor=T MaxTD1= 6 Len=  172
 NBasis=    52 RedAO= T EigKep=  1.29D-02  NBF=    12     2     6     6     2    12     6     6
 NBsUse=    52 1.00D-06 EigRej= -1.00D+00 NBFU=    12     2     6     6     2    12     6     6
 Precomputing XC quadrature grid using
 IXCGrd= 4 IRadAn=           0 IRanWt=          -1 IRanGd=           0 AccXCQ= 0.00D+00.
 Defaulting to unpruned grid for atomic number  79.
 Generated NRdTot=       0 NPtTot=           0 NUsed=           0 NTot=          32
 NSgBfM=    56    56    56    56    56 MxSgAt=    10 MxSgA2=    10.
 Leave Link  302 at Wed Feb 10 15:17:19 2016, MaxMem=    32768000 cpu:         0.4
 (Enter /home/palacios/gaussian/g09/l303.exe)
 DipDrv:  MaxL=1.
 Leave Link  303 at Wed Feb 10 15:17:19 2016, MaxMem=    32768000 cpu:         0.0
 (Enter /home/palacios/gaussian/g09/l401.exe)
 ExpMin= 2.79D-02 ExpMax= 3.68D+00 ExpMxC= 3.68D+00 IAcc=3 IRadAn=         5 AccDes= 0.00D+00
 Harris functional with IExCor=  205 and IRadAn=       5 diagonalized for initial guess.
 HarFok:  IExCor=  205 AccDes= 0.00D+00 IRadAn=         5 IDoV= 1 UseB2=F ITyADJ=14
 ICtDFT=  3500011 ScaDFX=  1.000000  1.000000  1.000000  1.000000
 Defaulting to unpruned grid for atomic number  79.
 FoFCou: FMM=F IPFlag=           0 FMFlag=      100000 FMFlg1=           0
         NFxFlg=           0 DoJE=T BraDBF=F KetDBF=T FulRan=T
         wScrn=  0.000000 ICntrl=     500 IOpCl=  0 I1Cent=   200000004 NGrid=           0
         NMat0=    1 NMatS0=      1 NMatT0=    0 NMatD0=    1 NMtDS0=    0 NMtDT0=    0
 Petite list used in FoFCou.
 Harris En= -272.828754354666    
 JPrj=0 DoOrth=F DoCkMO=F.
 Initial guess orbital symmetries:
       Occupied  (A1G) (A2U) (A1G) (A2U) (EU) (EU) (EG) (EG) (A1G)
                 (A2U) (A1G) (EU) (EU) (B2G) (B1G) (B1U) (B2U)
                 (EG) (EG) (A2U) (A1G) (EU) (EU)
       Virtual   (EG) (EG) (A2U) (B1G) (B2U) (EU) (EU) (A1G) (EU)
                 (EU) (EG) (EG) (A1G) (EG) (EG) (A2U) (B2G) (B1G)
                 (B1U) (B2U) (EU) (EU) (A1G) (A2U) (EG) (EG) (A2U)
                 (A1G) (A2U)
 The electronic state of the initial guess is 1-A1G.
 Leave Link  401 at Wed Feb 10 15:17:19 2016, MaxMem=    32768000 cpu:         0.2
 (Enter ../bin/l502.exe)
 Closed shell SCF:
 Using DIIS extrapolation, IDIIS=  1040.
 Integral symmetry usage will be decided dynamically.
 Keep J ints in memory in symmetry-blocked form, NReq=1861757.
 IVT=       29478 IEndB=       29478 NGot=    32768000 MDV=    32607104
 LenX=    32607104 LenY=    32603527
 Requested convergence on RMS density matrix=1.00D-06 within 128 cycles.
 Requested convergence on MAX density matrix=1.00D-04.
 Requested convergence on             energy=1.00D-04.
 No special actions if energy rises.
 FoFCou: FMM=F IPFlag=           0 FMFlag=           0 FMFlg1=           0
         NFxFlg=           0 DoJE=F BraDBF=F KetDBF=F FulRan=T
         wScrn=  0.000000 ICntrl=     600 IOpCl=  0 I1Cent=           0 NGrid=           0
         NMat0=    1 NMatS0=   1378 NMatT0=    0 NMatD0=    1 NMtDS0=    0 NMtDT0=    0
 Petite list used in FoFCou.

 Cycle   1  Pass 1  IDiag  1:
 
  ****************************************************************** 
  ***                                                            *** 
  ***                      A l i c a n t e                       *** 
  ***                      N a n o                               *** 
  ***                      T r a n s p o r t                     *** 
  ***                      G 0 9                                 *** 
  ***                                                            *** 
  ****************************************************************** 
  ***                     Version: 2.3.4                         *** 
  ****************************************************************** 
  *  Copyright (c) by                                              * 
  *                                                                * 
  *  Juan Jose Palacios (1)                                        * 
  *  David Jacob (2)                                               * 
  *  Maria Soriano (1,5)                                           * 
  *  Angel J. Perez-Jimenez (3)                                    * 
  *  Emilio SanFabian (3)                                          * 
  *  Jose Antonio Antonio Verges (4)                               * 
  *  Enrique Louis (5)                                             * 
  *                                                                * 
  * (1) Departamento de Fisica de la Materia Condensada            * 
  *     Universidad Autonoma de Madrid                             * 
  *     28049 Madrid (SPAIN)                                       * 
  * (2) Theory Department                                          * 
  *     Max-Planck-Institute for Microstructure Physics            * 
  *     Halle, 06120 (GERMANY)                                     * 
  * (3) Departamento de Quimica Fisica                             * 
  *     Universidad de Alicante                                    * 
  *     03690 Alicante (SPAIN)                                     * 
  * (4) Insto. de Ciencias de Materiales de Madrid (ICMM)          * 
  *     Consejo Superior de Investigacion y Ciencia (CSIC)         * 
  *     28049 Madrid (SPAIN)                                       * 
  * (5) Departamento de Fisica Aplicada                            * 
  *     Universidad de Alicante                                    * 
  *     03690 Alicante (SPAIN)                                     * 
  *                                                                * 
  ****************************************************************** 
 
  ****************************************************************** 
  *                                                                * 
  *              Initializing ANT.G09 modules                      * 
  *                                                                * 
  ****************************************************************** 
 
 Scanning Au4-Au-Au-Au4.ant file for parameter specifications...
 Done.
 ****************************
 Basic calculation parameters
 ****************************
 ALPHA      =    2.9999999999999999E-002
 NPULAY     =                         4
 CHARGEACC  =    1.0000000000000001E-005  %
 FERMIACC   =    1.0000000000000001E-005  %
 PACC       =    9.9999999999999995E-008  %
 FULLACC    =   F
 MAX        =                        10
 SELFACC    =    9.9999999999999995E-007
 SMALL      =    0.1000000000000000     
 SMALLD     =    0.1000000000000000       A
 BIASVOLT   =     0.000000000000000       V
 QEXCESS    =     0.000000000000000      electrons
 ETA        =    1.0000000000000000E-010
 GLUE       =     1.000000000000000     
 FERMISTART =    -5.000000000000000       eV
 SOC        =     0.000000000000000       eV
 SL         =    1.0000000000000000E-002
 DMIMAG     =   F
 FMIXING    =   F
 ************************
 Bethe lattice parameters
 ************************
 TYPE1      = BETHE     
 TYPE2      = BETHE     
 BLPAR1     = lsda-6s             
 BLPAR2     = lsda-6s             
 NEMBED1    = ? 
 NEMBED2    = ? 
 NATOMEL1   = ? 
 NATOMEL2   = ? 
 OVERLAP    = System Overlap
 *************************
 Spin transport parameters
 *************************
 SWOFFSPL   =    1.0000000000000000E-003
 NSPINLOCK  =                         0
 NALPHA     =                        -1
 NBETA      =                        -1
 DU         =   F
 UD         =   F
 DD         =   F
 MRSTART    =                         0
 SPINDEL    =   F
 SPINEDIT   =                         0
 ***********************
 Correlations parameters
 ***********************
 CORRBLOCKS =                         0
 PORTHO     =   F
 HYBFUNC    =   F
 DFT+U      =   F
 DIAGCORRBL =   F
 *****************
 Output parameters
 *****************
 HAMILTON   =   F
 MULLIKEN   =   F
 HTRANSM    =   F
 ESTEP      =    1.0000000000000000E-002
 DOSENERGY  =     0.000000000000000     
 EW1        =    -3.000000000000000     
 EW2        =     3.000000000000000     
 LDOS_BEG   =                         1
 LDOS_END   =                         0
 RTM_BEG    =                         1
 RTM_END    =                         0
 NCHANNELS  =                         0
 LEADDOS    =   F
 ANT1D      =   F
 -------------------
 Initializing device
 -------------------
 ----------------------------------------------------------
 Analyzing cluster for the connection of the  Bethe Lattice
 ----------------------------------------------------------
 
 Atom type of lead 1: Au
 Atom type of lead 2: Au
 
    1   79   1.    1    1    1
    2   79   1.    1    2    2
    3   79   1.    1    3    3
    4   79   1.    1    4    4
    5   79  19.   22    5   26
    6   79  19.   22   27   48
    7   79   1.    1   49   49
    8   79   1.    1   50   50
    9   79   1.    1   51   51
   10   79   1.    1   52   52
 
  Center of charge:
   0.000000   0.000000   0.000000
 
  Atoms in left electrode:                        5
   1  Au   0.000000   3.847482   6.380543
   2  Au  -3.847482   0.000000   6.380543
   3  Au   0.000000  -3.847482   6.380543
   4  Au   3.847482   0.000000   6.380543
   5  Au   0.000000   0.000000   2.641076
 
  Atoms in molecule:                        0
 
  Atoms in right electrode:                        5
   6  Au  -3.847482   0.000000  -6.380543
   7  Au   0.000000   3.847482  -6.380543
   8  Au   3.847482   0.000000  -6.380543
   9  Au   0.000000  -3.847482  -6.380543
  10  Au   0.000000   0.000000  -2.641076
 
 Plane 1
 with normal vector (  0.000000,  0.000000,  1.000000 )
 has    4 atoms:
    1    1   0.000000   3.847482   6.380543
    2    1  -3.847482   0.000000   6.380543
    3    1   0.000000  -3.847482   6.380543
    4    1   3.847482   0.000000   6.380543
 
 Plane 2
 with normal vector (  0.000000,  0.000000, -1.000000 )
 has    4 atoms:
    7    2   0.000000  -3.847482  -6.380543
    8    2   3.847482   0.000000  -6.380543
    9    2   0.000000   3.847482  -6.380543
   10    2  -3.847482   0.000000  -6.380543
 
 Finding lattice directions in electrode 1 ....
 Near-neighbor distance at electrode 1 =     2.839223969361773     
Found         12  lattice directions
  -0.70711  -0.70711   0.00000
   0.70711   0.70711   0.00000
   0.70711  -0.70711   0.00000
  -0.70711   0.70711   0.00000
   0.00000  -0.71710  -0.69697
   0.00000   0.71710   0.69697
   0.71710   0.00000  -0.69697
  -0.71710   0.00000   0.69697
   0.00000   0.71710  -0.69697
   0.00000  -0.71710   0.69697
  -0.71710   0.00000  -0.69697
   0.71710   0.00000   0.69697
 Finding lattice directions in electrode 2 ....
 Near-neighbor distance at electrode 2 =     2.839223969361773     
Found         12  lattice directions
   0.70711   0.70711   0.00000
  -0.70711  -0.70711   0.00000
   0.70711  -0.70711   0.00000
  -0.70711   0.70711   0.00000
   0.71710   0.00000   0.69697
  -0.71710   0.00000  -0.69697
   0.00000  -0.71710   0.69697
   0.00000   0.71710  -0.69697
  -0.71710   0.00000   0.69697
   0.71710   0.00000  -0.69697
   0.00000   0.71710   0.69697
   0.00000  -0.71710  -0.69697
 
 -----------------------------------------------------
 Inititalizing Bethe lattice for electrode No. 1
 -----------------------------------------------------
 
 Open file 
 /home/palacios/ANT.G/pgi/BLDAT/BL079.dat                                                            
  to read Bethe lattice parameters.
 Reading lsda-6s                                            parameters.
 es        =  -0.1826900000000000     
 sss       =  -8.1363000000000005E-002
 S_sss     =   0.3069800000000000     
 Done.
 Setting Fermi level to zero for Lead                         1
 Searching boundaries [EMin, EMax]
 such that Int[EMin, EMax] DOS(E) =                        2 
  ( Number of spin orbitals ).
  E=   -10.00000000000000          TotCharge=   0.6036031046058467     
  E=   -20.00000000000000          TotCharge=  -6.6105611138400633E-006
 EMin=   -20.00000000000000        Charge=  -6.6105611138400633E-006
  E=    10.00000000000000          TotCharge=    2.000012701828859     
 EMax=    10.00000000000000        Charge=    2.000012701828859     
 Now searching for Fermi energy...
  E=    5.000000000000000          TotCharge=    1.760829197891615     
  E=   -15.00000000000000          TotCharge=   0.2352714909149665     
  E=   -5.000000000000000          TotCharge=   0.9977149714629473     
  E=    0.000000000000000          TotCharge=    1.391942088721786     
  E=   -2.500000000000000          TotCharge=    1.196030332128651     
  E=   -3.750000000000000          TotCharge=    1.097012178717960     
  E=   -4.375000000000000          TotCharge=    1.047380356626781     
  E=   -4.687500000000000          TotCharge=    1.022549653275018     
  E=   -4.843750000000000          TotCharge=    1.010132535602416     
  E=   -4.921875000000000          TotCharge=    1.003923775139858     
 Secant method:
  E=   -5.100000000000000          TotCharge=   0.9897677487916730     
  E=   -4.900000000000000          TotCharge=    1.005662235366422     
  E=   -4.971247791991188          TotCharge=   0.9999999873920336     
 Bethe lattice Fermi energy =    -4.971247791991188     
 
 -----------------------------------------------------
 Inititalizing Bethe lattice for electrode No. 2
 -----------------------------------------------------
 
 Open file 
 /home/palacios/ANT.G/pgi/BLDAT/BL079.dat                                                            
  to read Bethe lattice parameters.
 Reading lsda-6s                                            parameters.
 es        =  -0.1826900000000000     
 sss       =  -8.1363000000000005E-002
 S_sss     =   0.3069800000000000     
 Done.
 Setting Fermi level to zero for Lead                         2
 Searching boundaries [EMin, EMax]
 such that Int[EMin, EMax] DOS(E) =                        2 
  ( Number of spin orbitals ).
  E=   -10.00000000000000          TotCharge=   0.6036031046058467     
  E=   -20.00000000000000          TotCharge=  -6.6105611138400633E-006
 EMin=   -20.00000000000000        Charge=  -6.6105611138400633E-006
  E=    10.00000000000000          TotCharge=    2.000012701828859     
 EMax=    10.00000000000000        Charge=    2.000012701828859     
 Now searching for Fermi energy...
  E=    5.000000000000000          TotCharge=    1.760829197891615     
  E=   -15.00000000000000          TotCharge=   0.2352714909149665     
  E=   -5.000000000000000          TotCharge=   0.9977149714629473     
  E=    0.000000000000000          TotCharge=    1.391942088721786     
  E=   -2.500000000000000          TotCharge=    1.196030332128651     
  E=   -3.750000000000000          TotCharge=    1.097012178717960     
  E=   -4.375000000000000          TotCharge=    1.047380356626781     
  E=   -4.687500000000000          TotCharge=    1.022549653275018     
  E=   -4.843750000000000          TotCharge=    1.010132535602416     
  E=   -4.921875000000000          TotCharge=    1.003923775139858     
 Secant method:
  E=   -5.100000000000000          TotCharge=   0.9897677487916730     
  E=   -4.900000000000000          TotCharge=    1.005662235366422     
  E=   -4.971247791991188          TotCharge=   0.9999999873920336     
 Bethe lattice Fermi energy =    -4.971247791991188     
 ---------------------------------------------------
  Details on device and contacting atoms -----------
 ---------------------------------------------------
 NEmbed(1) =                        4
 NEmbed(2) =                        4
 Number of electrons in neutral reduced device
 NCDEl =                        46
 First and last orbital in reduced device
 NCDAO1 =                         1
 NCDAO2 =                        52
 ---------------------------------------------------
 Defaulting to unpruned grid for atomic number  79.
 E= -272.675865233384    
 DIIS: error= 3.90D-02 at cycle   1 NSaved=   1.
 NSaved= 1 IEnMin= 1 EnMin= -272.675865233384     IErMin= 1 ErrMin= 3.90D-02
 ErrMax= 3.90D-02  0.00D+00 EMaxC= 1.00D-01 BMatC= 7.69D-02 BMatP= 7.69D-02
 IDIUse=3 WtCom= 6.10D-01 WtEn= 3.90D-01
 Coeff-Com:  0.100D+01
 Coeff-En:   0.100D+01
 Coeff:      0.100D+01
 Gap=     0.007 Goal=   None    Shift=    0.000
 RMSDP=3.79D-02 MaxDP=4.93D-01              OVMax= 2.29D-01

 Cycle   2  Pass 1  IDiag  1:
 E= -272.462144050531     Delta-E=        0.213721182854 Rises=F Damp=F
 DIIS: error= 4.43D-02 at cycle   2 NSaved=   2.
 NSaved= 2 IEnMin= 1 EnMin= -272.675865233384     IErMin= 1 ErrMin= 3.90D-02
 ErrMax= 4.43D-02  0.00D+00 EMaxC= 1.00D-01 BMatC= 7.10D-02 BMatP= 7.69D-02
 IDIUse=3 WtCom= 5.57D-01 WtEn= 4.43D-01
 Coeff-Com:  0.488D+00 0.512D+00
 Coeff-En:   0.685D+00 0.315D+00
 Coeff:      0.576D+00 0.424D+00
 Gap=     0.009 Goal=   None    Shift=    0.000
 RMSDP=3.06D-02 MaxDP=3.89D-01 DE= 2.14D-01 OVMax= 1.62D-01

 Cycle   3  Pass 1  IDiag  1:
 E= -272.774416243501     Delta-E=       -0.312272192970 Rises=F Damp=F
 DIIS: error= 2.46D-02 at cycle   3 NSaved=   3.
 NSaved= 3 IEnMin= 3 EnMin= -272.774416243501     IErMin= 3 ErrMin= 2.46D-02
 ErrMax= 2.46D-02  0.00D+00 EMaxC= 1.00D-01 BMatC= 4.25D-02 BMatP= 7.10D-02
 IDIUse=3 WtCom= 7.54D-01 WtEn= 2.46D-01
 EnCoef did     4 forward-backward iterations
 Coeff-Com:  0.366D+00 0.352D+00 0.282D+00
 Coeff-En:   0.131D+00 0.133D+00 0.737D+00
 Coeff:      0.308D+00 0.298D+00 0.394D+00
 Gap=     0.014 Goal=   None    Shift=    0.000
 RMSDP=1.06D-02 MaxDP=1.02D-01 DE=-3.12D-01 OVMax= 1.64D-01

 Cycle   4  Pass 1  IDiag  1:
 E= -272.841789609250     Delta-E=       -0.067373365749 Rises=F Damp=F
 DIIS: error= 1.05D-02 at cycle   4 NSaved=   4.
 NSaved= 4 IEnMin= 4 EnMin= -272.841789609250     IErMin= 4 ErrMin= 1.05D-02
 ErrMax= 1.05D-02  0.00D+00 EMaxC= 1.00D-01 BMatC= 6.50D-03 BMatP= 4.25D-02
 IDIUse=3 WtCom= 8.95D-01 WtEn= 1.05D-01
 Coeff-Com: -0.706D-01 0.672D-02 0.265D+00 0.799D+00
 Coeff-En:   0.000D+00 0.000D+00 0.149D+00 0.851D+00
 Coeff:     -0.632D-01 0.602D-02 0.253D+00 0.804D+00
 Gap=     0.015 Goal=   None    Shift=    0.000
 RMSDP=2.56D-03 MaxDP=2.68D-02 DE=-6.74D-02 OVMax= 5.10D-02

 Cycle   5  Pass 1  IDiag  1:
 E= -272.850296755988     Delta-E=       -0.008507146739 Rises=F Damp=F
 -------------------------------------------------------------------------
 Computing the density matrix at cycle:                        5
 -------------------------------------------------------------------------
 EMin=   -256.5109402697161     
 EMax=    256.5109402697161     
 --------------
 Charge Control
 --------------
 Searching energy boundaries [EMin, EMax] such that
 Total Integrated Spectral Weight (TISW)= 104
 EMin=  -256.51094  EMax=   256.51094  TISW= 103.99986
 --------------------------------------------------
 MULLER method
 Integration of P has needed a max no. of loops  32
 Integration of P has needed a max no. of loops  16
 Integration of P has needed a max no. of loops  16
 Integration of P has needed a max no. of loops  16
 Integration of P has needed a max no. of loops   8
 Integration of P has needed a max no. of loops   8
 Integration of P has needed a max no. of loops   4
 Integration of P has needed a max no. of loops   4
 Integration of P has needed a max no. of loops   4
 -----------------------------------------------
 Fermi energy=  -2.20106  +/-  0.00292
 
 Number of alpha electrons:   23.00001
 Number of beta electrons:    23.00001
 Total number of electrons:    46.00001
 -----------------------------------------------
 DIIS: error= 1.39D-03 at cycle   5 NSaved=   5.
 NSaved= 5 IEnMin= 5 EnMin= -272.850296755988     IErMin= 5 ErrMin= 1.39D-03
 ErrMax= 1.39D-03  0.00D+00 EMaxC= 1.00D-01 BMatC= 1.29D-04 BMatP= 6.50D-03
 IDIUse=3 WtCom= 9.86D-01 WtEn= 1.39D-02
 Coeff-Com: -0.614D-02 0.129D-02 0.242D-02 0.138D+00 0.864D+00
 Coeff-En:   0.000D+00 0.000D+00 0.000D+00 0.000D+00 0.100D+01
 Coeff:     -0.605D-02 0.127D-02 0.239D-02 0.136D+00 0.866D+00
 RMSDP=7.75D-04 MaxDP=8.41D-03 DE=-8.51D-03 OVMax= 5.10D-02

 Cycle   6  Pass 1  IDiag  1:
 E= -272.840965151241     Delta-E=        0.009331604747 Rises=F Damp=F
 -------------------------------------------------------------------------
 Computing the density matrix at cycle:                        6
 -------------------------------------------------------------------------
 EMin=   -256.6052983956682     
 EMax=    256.6052983956682     
 MULLER method
 Integration of P has needed a max no. of loops   4
 Integration of P has needed a max no. of loops   4
 Integration of P has needed a max no. of loops   4
 Integration of P has needed a max no. of loops   4
 Integration of P has needed a max no. of loops   4
 -----------------------------------------------
 Fermi energy=  -2.21804  +/-  0.00000
 
 Number of alpha electrons:   23.00000
 Number of beta electrons:    23.00000
 Total number of electrons:    46.00000
 -----------------------------------------------
 RMSDP=7.51D-04 MaxDP=8.11D-03 DE= 9.33D-03 OVMax= 5.10D-02

 Cycle   7  Pass 1  IDiag  1:
 E= -272.831905985783     Delta-E=        0.009059165458 Rises=F Damp=F
 -------------------------------------------------------------------------
 Computing the density matrix at cycle:                        7
 -------------------------------------------------------------------------
 EMin=   -256.6906741813539     
 EMax=    256.6906741813539     
 MULLER method
 Integration of P has needed a max no. of loops   4
 Integration of P has needed a max no. of loops   4
 Integration of P has needed a max no. of loops   4
 Integration of P has needed a max no. of loops   4
 Integration of P has needed a max no. of loops   4
 -----------------------------------------------
 Fermi energy=  -2.23379  +/-  0.00000
 
 Number of alpha electrons:   23.00000
 Number of beta electrons:    23.00000
 Total number of electrons:    46.00000
 -----------------------------------------------
 RMSDP=7.28D-04 MaxDP=7.83D-03 DE= 9.06D-03 OVMax= 5.10D-02

 Cycle   8  Pass 1  IDiag  1:
 E= -272.823113172378     Delta-E=        0.008792813405 Rises=F Damp=F
 -------------------------------------------------------------------------
 Computing the density matrix at cycle:                        8
 -------------------------------------------------------------------------
 EMin=   -256.7679224723442     
 EMax=    256.7679224723442     
 MULLER method
 Integration of P has needed a max no. of loops  16
 Integration of P has needed a max no. of loops   4
 Integration of P has needed a max no. of loops   4
 Integration of P has needed a max no. of loops   4
 Integration of P has needed a max no. of loops   4
 Integration of P has needed a max no. of loops   4
 -----------------------------------------------
 Fermi energy=  -2.24842  +/-  0.00000
 
 Number of alpha electrons:   23.00000
 Number of beta electrons:    23.00000
 Total number of electrons:    46.00000
 -----------------------------------------------
 Pulay kick .............
 RMSDP=2.34D-02 MaxDP=2.34D-01 DE= 8.79D-03 OVMax= 5.10D-02

 Cycle   9  Pass 1  IDiag  1:
 E= -272.543548440659     Delta-E=        0.279564731719 Rises=F Damp=F
 -------------------------------------------------------------------------
 Computing the density matrix at cycle:                        9
 -------------------------------------------------------------------------
 EMin=   -257.3708111561632     
 EMax=    257.3708111561632     
 MULLER method
 Integration of P has needed a max no. of loops   8
 Integration of P has needed a max no. of loops  16
 Integration of P has needed a max no. of loops  16
 Integration of P has needed a max no. of loops   4
 Integration of P has needed a max no. of loops  16
 Integration of P has needed a max no. of loops  16
 -----------------------------------------------
 Fermi energy=  -2.49441  +/-  0.01639
 
 Number of alpha electrons:   23.02153
 Number of beta electrons:    23.02153
 Total number of electrons:    46.04306
 -----------------------------------------------
 RMSDP=2.52D-05 MaxDP=2.26D-04 DE= 2.80D-01 OVMax= 5.10D-02

 Cycle  10  Pass 1  IDiag  1:
 E= -272.543885565758     Delta-E=       -0.000337125099 Rises=F Damp=F
 -------------------------------------------------------------------------
 Computing the density matrix at cycle:                       10
 -------------------------------------------------------------------------
 EMin=   -257.3291979919719     
 EMax=    257.3291979919719     
 MULLER method
 Integration of P has needed a max no. of loops  16
 Integration of P has needed a max no. of loops  16
 Integration of P has needed a max no. of loops  16
 Integration of P has needed a max no. of loops  16
 Integration of P has needed a max no. of loops  16
 -----------------------------------------------
 Fermi energy=  -2.50825  +/-  0.00000
 
 Number of alpha electrons:   23.00000
 Number of beta electrons:    23.00000
 Total number of electrons:    46.00000
 -----------------------------------------------
 RMSDP=2.54D-05 MaxDP=2.18D-04 DE=-3.37D-04 OVMax= 5.10D-02

 Cycle  11  Pass 1  IDiag  1:
 E= -272.544102078258     Delta-E=       -0.000216512500 Rises=F Damp=F
 -------------------------------------------------------------------------
 Computing the density matrix at cycle:                       11
 -------------------------------------------------------------------------
 EMin=   -257.3059564350458     
 EMax=    257.3059564350458     
 MULLER method
 Integration of P has needed a max no. of loops  16
 Integration of P has needed a max no. of loops  16
 Integration of P has needed a max no. of loops  16
 Integration of P has needed a max no. of loops  16
 Integration of P has needed a max no. of loops  16
 -----------------------------------------------
 Fermi energy=  -2.50559  +/-  0.00000
 
 Number of alpha electrons:   23.00000
 Number of beta electrons:    23.00000
 Total number of electrons:    46.00000
 -----------------------------------------------
 RMSDP=2.47D-05 MaxDP=2.16D-04 DE=-2.17D-04 OVMax= 5.10D-02

 Cycle  12  Pass 1  IDiag  1:
 E= -272.544309593302     Delta-E=       -0.000207515043 Rises=F Damp=F
 -------------------------------------------------------------------------
 Computing the density matrix at cycle:                       12
 -------------------------------------------------------------------------
 EMin=   -257.2848017248601     
 EMax=    257.2848017248601     
 MULLER method
 Integration of P has needed a max no. of loops  16
 Integration of P has needed a max no. of loops  16
 Integration of P has needed a max no. of loops  16
 Integration of P has needed a max no. of loops  16
 Integration of P has needed a max no. of loops  16
 -----------------------------------------------
 Fermi energy=  -2.50312  +/-  0.00000
 
 Number of alpha electrons:   23.00000
 Number of beta electrons:    23.00000
 Total number of electrons:    46.00000
 -----------------------------------------------
 RMSDP=2.41D-05 MaxDP=2.14D-04 DE=-2.08D-04 OVMax= 5.10D-02

 Cycle  13  Pass 1  IDiag  1:
 E= -272.544508582868     Delta-E=       -0.000198989566 Rises=F Damp=F
 -------------------------------------------------------------------------
 Computing the density matrix at cycle:                       13
 -------------------------------------------------------------------------
 EMin=   -257.2655444137426     
 EMax=    257.2655444137426     
 MULLER method
 Integration of P has needed a max no. of loops  16
 Integration of P has needed a max no. of loops  16
 Integration of P has needed a max no. of loops  16
 Integration of P has needed a max no. of loops  16
 Integration of P has needed a max no. of loops  16
 -----------------------------------------------
 Fermi energy=  -2.50084  +/-  0.00000
 
 Number of alpha electrons:   23.00000
 Number of beta electrons:    23.00000
 Total number of electrons:    46.00000
 -----------------------------------------------
 Pulay kick .............
 RMSDP=9.82D-04 MaxDP=1.45D-02 DE=-1.99D-04 OVMax= 5.10D-02

 Cycle  14  Pass 1  IDiag  1:
 E= -272.549504758573     Delta-E=       -0.004996175705 Rises=F Damp=F
 -------------------------------------------------------------------------
 Computing the density matrix at cycle:                       14
 -------------------------------------------------------------------------
 EMin=   -257.1074390431789     
 EMax=    257.1074390431789     
 MULLER method
 Integration of P has needed a max no. of loops  16
 Integration of P has needed a max no. of loops  16
 Integration of P has needed a max no. of loops  16
 Integration of P has needed a max no. of loops  16
 Integration of P has needed a max no. of loops  16
 -----------------------------------------------
 Fermi energy=  -2.47235  +/-  0.00000
 
 Number of alpha electrons:   23.00000
 Number of beta electrons:    23.00000
 Total number of electrons:    46.00000
 -----------------------------------------------
 RMSDP=2.26D-06 MaxDP=2.27D-05 DE=-5.00D-03 OVMax= 5.10D-02

 Cycle  15  Pass 1  IDiag  1:
 E= -272.549515178289     Delta-E=       -0.000010419716 Rises=F Damp=F
 -------------------------------------------------------------------------
 Computing the density matrix at cycle:                       15
 -------------------------------------------------------------------------
 EMin=   -257.1031276825958     
 EMax=    257.1031276825958     
 --------------
 Charge Control
 --------------
 Searching energy boundaries [EMin, EMax] such that
 Total Integrated Spectral Weight (TISW)= 104
 EMin=  -257.10313  EMax=   257.10313  TISW= 104.00000
 --------------------------------------------------
 MULLER method
 Integration of P has needed a max no. of loops  16
 Integration of P has needed a max no. of loops  16
 Integration of P has needed a max no. of loops  16
 Integration of P has needed a max no. of loops  16
 Integration of P has needed a max no. of loops  16
 -----------------------------------------------
 Fermi energy=  -2.47201  +/-  0.00000
 
 Number of alpha electrons:   23.00000
 Number of beta electrons:    23.00000
 Total number of electrons:    46.00000
 -----------------------------------------------
 RMSDP=2.07D-06 MaxDP=2.01D-05 DE=-1.04D-05 OVMax= 5.10D-02

 Cycle  16  Pass 1  IDiag  1:
 E= -272.549525131549     Delta-E=       -0.000009953260 Rises=F Damp=F
 -------------------------------------------------------------------------
 Computing the density matrix at cycle:                       16
 -------------------------------------------------------------------------
 EMin=   -257.0992181716387     
 EMax=    257.0992181716387     
 MULLER method
 Integration of P has needed a max no. of loops  16
 Integration of P has needed a max no. of loops  16
 Integration of P has needed a max no. of loops  16
 Integration of P has needed a max no. of loops  16
 Integration of P has needed a max no. of loops  16
 -----------------------------------------------
 Fermi energy=  -2.47171  +/-  0.00000
 
 Number of alpha electrons:   23.00000
 Number of beta electrons:    23.00000
 Total number of electrons:    46.00000
 -----------------------------------------------
 RMSDP=1.92D-06 MaxDP=1.78D-05 DE=-9.95D-06 OVMax= 5.10D-02

 Cycle  17  Pass 1  IDiag  1:
 E= -272.549534646717     Delta-E=       -0.000009515168 Rises=F Damp=F
 -------------------------------------------------------------------------
 Computing the density matrix at cycle:                       17
 -------------------------------------------------------------------------
 EMin=   -257.0956732792039     
 EMax=    257.0956732792039     
 MULLER method
 Integration of P has needed a max no. of loops  16
 Integration of P has needed a max no. of loops  16
 Integration of P has needed a max no. of loops  16
 Integration of P has needed a max no. of loops  16
 Integration of P has needed a max no. of loops  16
 -----------------------------------------------
 Fermi energy=  -2.47143  +/-  0.00000
 
 Number of alpha electrons:   23.00000
 Number of beta electrons:    23.00000
 Total number of electrons:    46.00000
 -----------------------------------------------
 RMSDP=1.80D-06 MaxDP=1.80D-05 DE=-9.52D-06 OVMax= 5.10D-02

 Cycle  18  Pass 1  IDiag  1:
 E= -272.549543749840     Delta-E=       -0.000009103123 Rises=F Damp=F
 -------------------------------------------------------------------------
 Computing the density matrix at cycle:                       18
 -------------------------------------------------------------------------
 EMin=   -257.0924592059495     
 EMax=    257.0924592059495     
 MULLER method
 Integration of P has needed a max no. of loops  16
 Integration of P has needed a max no. of loops  16
 Integration of P has needed a max no. of loops  16
 Integration of P has needed a max no. of loops  16
 Integration of P has needed a max no. of loops  16
 -----------------------------------------------
 Fermi energy=  -2.47118  +/-  0.00000
 
 Number of alpha electrons:   23.00000
 Number of beta electrons:    23.00000
 Total number of electrons:    46.00000
 -----------------------------------------------
 Pulay kick .............
 RMSDP=8.41D-05 MaxDP=1.71D-03 DE=-9.10D-06 OVMax= 5.10D-02

 Cycle  19  Pass 1  IDiag  1:
 E= -272.549800296529     Delta-E=       -0.000256546689 Rises=F Damp=F
 -------------------------------------------------------------------------
 Computing the density matrix at cycle:                       19
 -------------------------------------------------------------------------
 EMin=   -257.0611261913874     
 EMax=    257.0611261913874     
 MULLER method
 Integration of P has needed a max no. of loops  16
 Integration of P has needed a max no. of loops  16
 Integration of P has needed a max no. of loops  16
 Integration of P has needed a max no. of loops  16
 Integration of P has needed a max no. of loops  16
 -----------------------------------------------
 Fermi energy=  -2.46863  +/-  0.00000
 
 Number of alpha electrons:   23.00000
 Number of beta electrons:    23.00000
 Total number of electrons:    46.00000
 -----------------------------------------------
 RMSDP=7.53D-08 MaxDP=1.45D-06 DE=-2.57D-04 OVMax= 5.10D-02

 SCF Done:  E(RS-VWN) =  -272.549800297     A.U. after   19 cycles
            NFock= 19  Conv=0.75D-07     -V/T= 4.0804
 KE= 8.847926065670D+01 PE=-7.990455446565D+02 EE= 3.226965305382D+02
 -------------------------------------------------------------------------
 Computing the density matrix at cycle:                     1000
 -------------------------------------------------------------------------
 EMin=   -257.0611261913874     
 EMax=    257.0611261913874     
 MULLER method
 Integration of P has needed a max no. of loops  16
 Integration of P has needed a max no. of loops  16
 Integration of P has needed a max no. of loops  16
 Integration of P has needed a max no. of loops  16
 Integration of P has needed a max no. of loops  16
 -----------------------------------------------
 Fermi energy=  -2.46863  +/-  0.00000
 
 Number of alpha electrons:   23.00000
 Number of beta electrons:    23.00000
 Total number of electrons:    46.00000
 -----------------------------------------------
 
 ****************************************** 
 *                                        * 
 *        ANT.G09 final analysis          * 
 *                                        * 
 ****************************************** 
 
 -------------------------------------
 ---  Self-consistent Hamiltonian  ---
 -------------------------------------
 ---------
 Left lead
 ---------
 Atom:   1   -3.877786
 Atom:   2   -3.877786
 Atom:   3   -3.877786
 Atom:   4   -3.877786
 Atom:   5  -13.082223
 ----------
 Right lead
 ----------
 Atom:   6  -13.082223
 Atom:   7   -3.877786
 Atom:   8   -3.877786
 Atom:   9   -3.877786
 Atom:  10   -3.877786
 
 --------------------------------
 --- Calculating Transmission ---
 ---  (and DOS if required)   ---
 --------------------------------
 
 -------------------------------------
 ---  Mulliken population analysis ---
 -------------------------------------
 ----------------------
 Charges in electrode 1
 ----------------------
 Atom:   1  El.dens:  1.0210
 Atom:   2  El.dens:  1.0210
 Atom:   3  El.dens:  1.0210
 Atom:   4  El.dens:  1.0210
 Atom:   5  El.dens: 18.9159
 ----------------------------------------------------
 Total num. of electrons in electrode 1:    22.99999999999996     
 ----------------------------------------------------
 ----------------------------------------------------
 Total num. of electrons in molecule:    0.000000000000000     
 ----------------------------------------------------
 ----------------------
 Charges in electrode 2
 ----------------------
 Atom:   6  El.dens: 18.9159
 Atom:   7  El.dens:  1.0210
 Atom:   8  El.dens:  1.0210
 Atom:   9  El.dens:  1.0210
 Atom:  10  El.dens:  1.0210
 ----------------------------------------------------
 Total num. of electrons in electrode 2:    22.99999999999999     
 ----------------------------------------------------
  ----------------- End of ANT.G09 ------------------- 
 Leave Link  502 at Wed Feb 10 15:17:33 2016, MaxMem=    32768000 cpu:        14.0
 (Enter /home/palacios/gaussian/g09/l601.exe)
 Copying SCF densities to generalized density rwf, IOpCl= 0 IROHF=0.

 **********************************************************************

            Population analysis using the SCF density.

 **********************************************************************

 Orbital symmetries:
       Occupied  (A1G) (A2U) (A1G) (A2U) (EU) (EU) (EG) (EG) (A1G)
                 (A2U) (A1G) (EU) (EU) (B2G) (B1G) (B1U) (B2U)
                 (EG) (EG) (A2U) (A1G) (EU) (EU)
       Virtual   (EG) (EG) (A2U) (B1G) (B2U) (EU) (EU) (A1G) (EU)
                 (EU) (EG) (EG) (A1G) (EG) (EG) (A2U) (B2G) (B1G)
                 (B1U) (B2U) (EU) (EU) (A1G) (A2U) (EG) (EG) (A2U)
                 (A1G) (A2U)
 The electronic state is 1-A1G.
 Alpha  occ. eigenvalues --   -3.92702  -3.92696  -2.10867  -2.10569  -2.09586
 Alpha  occ. eigenvalues --   -2.09586  -2.09560  -2.09560  -0.25703  -0.22692
 Alpha  occ. eigenvalues --   -0.21735  -0.21485  -0.21485  -0.19618  -0.19274
 Alpha  occ. eigenvalues --   -0.18999  -0.18666  -0.18658  -0.18658  -0.18421
 Alpha  occ. eigenvalues --   -0.10911  -0.08804  -0.08804
 Alpha virt. eigenvalues --   -0.07309  -0.07309  -0.00309   0.03036   0.03175
 Alpha virt. eigenvalues --    0.07737   0.07737   0.11665   0.15408   0.15408
 Alpha virt. eigenvalues --    0.20798   0.20798   0.28271   0.31826   0.31826
 Alpha virt. eigenvalues --    0.41694   0.44904   0.49566   0.55373   0.62534
 Alpha virt. eigenvalues --    0.69342   0.69342   0.72402   0.84990   0.96027
 Alpha virt. eigenvalues --    0.96027   1.00979   4.59359   5.07487
          Condensed to atoms (all electrons):
               1          2          3          4          5          6
     1  Au   1.157489  -0.006474   0.000844  -0.006474  -0.075315  -0.048788
     2  Au  -0.006474   1.157489  -0.006474   0.000844  -0.075315  -0.048788
     3  Au   0.000844  -0.006474   1.157489  -0.006474  -0.075315  -0.048788
     4  Au  -0.006474   0.000844  -0.006474   1.157489  -0.075315  -0.048788
     5  Au  -0.075315  -0.075315  -0.075315  -0.075315  19.607703  -0.195369
     6  Au  -0.048788  -0.048788  -0.048788  -0.048788  -0.195369  19.607703
     7  Au  -0.000041  -0.000068  -0.000087  -0.000068  -0.048788  -0.075315
     8  Au  -0.000068  -0.000041  -0.000068  -0.000087  -0.048788  -0.075315
     9  Au  -0.000087  -0.000068  -0.000041  -0.000068  -0.048788  -0.075315
    10  Au  -0.000068  -0.000087  -0.000068  -0.000041  -0.048788  -0.075315
               7          8          9         10
     1  Au  -0.000041  -0.000068  -0.000087  -0.000068
     2  Au  -0.000068  -0.000041  -0.000068  -0.000087
     3  Au  -0.000087  -0.000068  -0.000041  -0.000068
     4  Au  -0.000068  -0.000087  -0.000068  -0.000041
     5  Au  -0.048788  -0.048788  -0.048788  -0.048788
     6  Au  -0.075315  -0.075315  -0.075315  -0.075315
     7  Au   1.157489  -0.006474   0.000844  -0.006474
     8  Au  -0.006474   1.157489  -0.006474   0.000844
     9  Au   0.000844  -0.006474   1.157489  -0.006474
    10  Au  -0.006474   0.000844  -0.006474   1.157489
 Mulliken charges:
               1
     1  Au  -0.021019
     2  Au  -0.021019
     3  Au  -0.021019
     4  Au  -0.021019
     5  Au   0.084076
     6  Au   0.084076
     7  Au  -0.021019
     8  Au  -0.021019
     9  Au  -0.021019
    10  Au  -0.021019
 Sum of Mulliken charges =   0.00000
 Mulliken charges with hydrogens summed into heavy atoms:
               1
     1  Au  -0.021019
     2  Au  -0.021019
     3  Au  -0.021019
     4  Au  -0.021019
     5  Au   0.084076
     6  Au   0.084076
     7  Au  -0.021019
     8  Au  -0.021019
     9  Au  -0.021019
    10  Au  -0.021019
 Electronic spatial extent (au):  <R**2>=            872.8243
 Charge=              0.0000 electrons
 Dipole moment (field-independent basis, Debye):
    X=              0.0000    Y=              0.0000    Z=              0.0000  Tot=              0.0000
 Quadrupole moment (field-independent basis, Debye-Ang):
   XX=            -87.1436   YY=            -87.1436   ZZ=            -45.8250
   XY=              0.0000   XZ=              0.0000   YZ=              0.0000
 Traceless Quadrupole moment (field-independent basis, Debye-Ang):
   XX=            -13.7729   YY=            -13.7729   ZZ=             27.5458
   XY=              0.0000   XZ=              0.0000   YZ=              0.0000
 Octapole moment (field-independent basis, Debye-Ang**2):
  XXX=              0.0000  YYY=              0.0000  ZZZ=              0.0000  XYY=              0.0000
  XXY=              0.0000  XXZ=              0.0000  XZZ=              0.0000  YZZ=              0.0000
  YYZ=              0.0000  XYZ=              0.0000
 Hexadecapole moment (field-independent basis, Debye-Ang**3):
 XXXX=           -683.5440 YYYY=           -683.5440 ZZZZ=          -2717.5661 XXXY=              0.0000
 XXXZ=              0.0000 YYYX=              0.0000 YYYZ=              0.0000 ZZZX=              0.0000
 ZZZY=              0.0000 XXYY=           -219.6800 XXZZ=           -630.5013 YYZZ=           -630.5013
 XXYZ=              0.0000 YYXZ=              0.0000 ZZXY=              0.0000
 N-N= 1.153199531651D+02 E-N=-7.990455165871D+02  KE= 8.847926065670D+01
 Symmetry AG   KE= 1.927433815935D+01
 Symmetry B1G  KE= 4.811140280121D+00
 Symmetry B2G  KE= 1.034656950306D+01
 Symmetry B3G  KE= 1.034656950306D+01
 Symmetry AU   KE= 4.964027549328D+00
 Symmetry B1U  KE= 1.915084132705D+01
 Symmetry B2U  KE= 9.792887167360D+00
 Symmetry B3U  KE= 9.792887167360D+00
 No NMR shielding tensors so no spin-rotation constants.
 Leave Link  601 at Wed Feb 10 15:17:33 2016, MaxMem=    32768000 cpu:         0.1
 (Enter /home/palacios/gaussian/g09/l9999.exe)
 1\1\GINC-ASUS\SP\RSVWN\Gen\Au10\PALACIOS\10-Feb-2016\0\\#p lsda/gen ps
 eudo=read gfinput Scf=(dsymm,conver=6,nodamp)\\Au4-Au-Au-Au4\\0,1\Au,0
 ,2.036,0.,3.376438\Au,0,0.,2.036,3.376438\Au,0,-2.036,0.,3.376438\Au,0
 ,0.,-2.036,3.376438\Au,0,0.,0.,1.397597\Au,0,0.,0.,-1.397597\Au,0,-2.0
 36,0.,-3.376438\Au,0,0.,-2.036,-3.376438\Au,0,2.036,0.,-3.376438\Au,0,
 0.,2.036,-3.376438\\Version=ES64L-G09RevD.01\State=1-A1G\HF=-272.54980
 03\RMSD=7.532e-08\Dipole=0.,0.,0.\Quadrupole=-10.2398032,-10.2398032,2
 0.4796064,0.,0.,0.\PG=D04H [C4(Au1.Au1),2SGV(Au4)]\\@


 KNOWING HOW CONTENTED, FREE, AND JOYFUL IS LIFE IN
 THE REALMS OF SCIENCE, ONE FERVENTLY WISHES THAT
 MANY WOULD ENTER HER PORTALS.
   --  DMITRI IVANOVICH MENDELEEV
 "FIRST PRINCIPLES OF CHEMISTRY", LONGMANS, GREEN,
 AND CO.  LONDON, 1891
 Job cpu time:       0 days  0 hours  0 minutes 15.0 seconds.
 File lengths (MBytes):  RWF=      5 Int=      0 D2E=      0 Chk=      1 Scr=      1
 Normal termination of Gaussian 09 at Wed Feb 10 15:17:33 2016.
