 Entering Gaussian System, Link 0=g09
 Input=Au4-Au-Au-Au4.gjf
 Output=Au4-Au-Au-Au4.log
 Initial command:
 /home/palacios/Gaussian09/intel/v.D01/g09/l1.exe "/scratch/palacios/Gau-29579.inp" -scrdir="/scratch/palacios/"
 Entering Link 1 = /home/palacios/Gaussian09/intel/v.D01/g09/l1.exe PID=     29580.
  
 Copyright (c) 1988,1990,1992,1993,1995,1998,2003,2009,2013,
            Gaussian, Inc.  All Rights Reserved.
  
 This is part of the Gaussian(R) 09 program.  It is based on
 the Gaussian(R) 03 system (copyright 2003, Gaussian, Inc.),
 the Gaussian(R) 98 system (copyright 1998, Gaussian, Inc.),
 the Gaussian(R) 94 system (copyright 1995, Gaussian, Inc.),
 the Gaussian 92(TM) system (copyright 1992, Gaussian, Inc.),
 the Gaussian 90(TM) system (copyright 1990, Gaussian, Inc.),
 the Gaussian 88(TM) system (copyright 1988, Gaussian, Inc.),
 the Gaussian 86(TM) system (copyright 1986, Carnegie Mellon
 University), and the Gaussian 82(TM) system (copyright 1983,
 Carnegie Mellon University). Gaussian is a federally registered
 trademark of Gaussian, Inc.
  
 This software contains proprietary and confidential information,
 including trade secrets, belonging to Gaussian, Inc.
  
 This software is provided under written license and may be
 used, copied, transmitted, or stored only in accord with that
 written license.
  
 The following legend is applicable only to US Government
 contracts under FAR:
  
                    RESTRICTED RIGHTS LEGEND
  
 Use, reproduction and disclosure by the US Government is
 subject to restrictions as set forth in subparagraphs (a)
 and (c) of the Commercial Computer Software - Restricted
 Rights clause in FAR 52.227-19.
  
 Gaussian, Inc.
 340 Quinnipiac St., Bldg. 40, Wallingford CT 06492
  
  
 ---------------------------------------------------------------
 Warning -- This program may not be used in any manner that
 competes with the business of Gaussian, Inc. or will provide
 assistance to any competitor of Gaussian, Inc.  The licensee
 of this program is prohibited from giving any competitor of
 Gaussian, Inc. access to this program.  By using this program,
 the user acknowledges that Gaussian, Inc. is engaged in the
 business of creating and licensing software in the field of
 computational chemistry and represents and warrants to the
 licensee that it is not a competitor of Gaussian, Inc. and that
 it will not use this program in any manner prohibited above.
 ---------------------------------------------------------------
  

 Cite this work as:
 Gaussian 09, Revision D.01,
 M. J. Frisch, G. W. Trucks, H. B. Schlegel, G. E. Scuseria, 
 M. A. Robb, J. R. Cheeseman, G. Scalmani, V. Barone, B. Mennucci, 
 G. A. Petersson, H. Nakatsuji, M. Caricato, X. Li, H. P. Hratchian, 
 A. F. Izmaylov, J. Bloino, G. Zheng, J. L. Sonnenberg, M. Hada, 
 M. Ehara, K. Toyota, R. Fukuda, J. Hasegawa, M. Ishida, T. Nakajima, 
 Y. Honda, O. Kitao, H. Nakai, T. Vreven, J. A. Montgomery, Jr., 
 J. E. Peralta, F. Ogliaro, M. Bearpark, J. J. Heyd, E. Brothers, 
 K. N. Kudin, V. N. Staroverov, T. Keith, R. Kobayashi, J. Normand, 
 K. Raghavachari, A. Rendell, J. C. Burant, S. S. Iyengar, J. Tomasi, 
 M. Cossi, N. Rega, J. M. Millam, M. Klene, J. E. Knox, J. B. Cross, 
 V. Bakken, C. Adamo, J. Jaramillo, R. Gomperts, R. E. Stratmann, 
 O. Yazyev, A. J. Austin, R. Cammi, C. Pomelli, J. W. Ochterski, 
 R. L. Martin, K. Morokuma, V. G. Zakrzewski, G. A. Voth, 
 P. Salvador, J. J. Dannenberg, S. Dapprich, A. D. Daniels, 
 O. Farkas, J. B. Foresman, J. V. Ortiz, J. Cioslowski, 
 and D. J. Fox, Gaussian, Inc., Wallingford CT, 2013.
 
 ******************************************
 Gaussian 09:  AS64L-G09RevD.01 24-Apr-2013
                 8-Jul-2022 
 ******************************************
 %mem=250mb
 %NProcShared=4
 Will use up to    4 processors via shared memory.
 %Subst L502 ../../bin
 %Subst L101 ../../bin
 -----------------------------------------------------------
 #p lsda/gen pseudo=read gfinput Scf=(dsymm,conver=6,nodamp)
 -----------------------------------------------------------
 1/38=1/1;
 2/12=2,17=6,18=5,40=1/2;
 3/5=7,11=2,16=1,17=8,24=10,25=1,30=1,74=205/1,2,3;
 4//1;
 5/5=2,6=6,17=200,18=-2,38=5/2;
 6/7=2,8=2,9=2,10=2,28=1/1;
 99/5=1,9=1/99;
 Leave Link    1 at Fri Jul  8 10:28:29 2022, MaxMem=    32768000 cpu:         0.1
 (Enter ../../bin/l101.exe)
 -------------
 Au4-Au-Au-Au4
 -------------
 Symbolic Z-matrix:
 Charge =  0 Multiplicity = 1
 Au                    2.036     0.        3.37644 
 Au                    0.        2.036     3.37644 
 Au                   -2.036     0.        3.37644 
 Au                    0.       -2.036     3.37644 
 Au                    0.        0.        1.3976 
 Au                    0.        0.       -1.3976 
 Au                   -2.036     0.       -3.37644 
 Au                    0.       -2.036    -3.37644 
 Au                    2.036     0.       -3.37644 
 Au                    0.        2.036    -3.37644 
 
 NAtoms=     10 NQM=       10 NQMF=       0 NMMI=      0 NMMIF=      0
                NMic=       0 NMicF=      0.
                    Isotopes and Nuclear Properties:
 (Nuclear quadrupole moments (NQMom) in fm**2, nuclear magnetic moments (NMagM)
  in nuclear magnetons)

  Atom         1           2           3           4           5           6           7           8           9          10
 IAtWgt=         197         197         197         197         197         197         197         197         197         197
 AtmWgt= 196.9666000 196.9666000 196.9666000 196.9666000 196.9666000 196.9666000 196.9666000 196.9666000 196.9666000 196.9666000
 NucSpn=           3           3           3           3           3           3           3           3           3           3
 AtZEff=   0.0000000   0.0000000   0.0000000   0.0000000   0.0000000   0.0000000   0.0000000   0.0000000   0.0000000   0.0000000
 NQMom=   54.7000000  54.7000000  54.7000000  54.7000000  54.7000000  54.7000000  54.7000000  54.7000000  54.7000000  54.7000000
 NMagM=    0.1481590   0.1481590   0.1481590   0.1481590   0.1481590   0.1481590   0.1481590   0.1481590   0.1481590   0.1481590
 AtZNuc=  79.0000000  79.0000000  79.0000000  79.0000000  79.0000000  79.0000000  79.0000000  79.0000000  79.0000000  79.0000000
 Leave Link  101 at Fri Jul  8 10:28:29 2022, MaxMem=    32768000 cpu:         0.2
 (Enter /home/palacios/Gaussian09/intel/v.D01/g09/l202.exe)
                          Input orientation:                          
 ---------------------------------------------------------------------
 Center     Atomic      Atomic             Coordinates (Angstroms)
 Number     Number       Type             X           Y           Z
 ---------------------------------------------------------------------
      1         79           0        2.036000    0.000000    3.376438
      2         79           0        0.000000    2.036000    3.376438
      3         79           0       -2.036000    0.000000    3.376438
      4         79           0        0.000000   -2.036000    3.376438
      5         79           0        0.000000    0.000000    1.397597
      6         79           0        0.000000    0.000000   -1.397597
      7         79           0       -2.036000    0.000000   -3.376438
      8         79           0        0.000000   -2.036000   -3.376438
      9         79           0        2.036000    0.000000   -3.376438
     10         79           0        0.000000    2.036000   -3.376438
 ---------------------------------------------------------------------
                    Distance matrix (angstroms):
                    1          2          3          4          5
     1  Au   0.000000
     2  Au   2.879339   0.000000
     3  Au   4.072000   2.879339   0.000000
     4  Au   2.879339   4.072000   2.879339   0.000000
     5  Au   2.839209   2.839209   2.839209   2.839209   0.000000
     6  Au   5.190058   5.190058   5.190058   5.190058   2.795194
     7  Au   7.885589   7.341112   6.752876   7.341112   5.190058
     8  Au   7.341112   7.885589   7.341112   6.752876   5.190058
     9  Au   6.752876   7.341112   7.885589   7.341112   5.190058
    10  Au   7.341112   6.752876   7.341112   7.885589   5.190058
                    6          7          8          9         10
     6  Au   0.000000
     7  Au   2.839209   0.000000
     8  Au   2.839209   2.879339   0.000000
     9  Au   2.839209   4.072000   2.879339   0.000000
    10  Au   2.839209   2.879339   4.072000   2.879339   0.000000
 Stoichiometry    Au10
 Framework group  D4H[C4(Au.Au),2SGV(Au4)]
 Deg. of freedom     3
 Full point group                 D4H     NOp  16
 Largest Abelian subgroup         D2H     NOp   8
 Largest concise Abelian subgroup D2H     NOp   8
                         Standard orientation:                         
 ---------------------------------------------------------------------
 Center     Atomic      Atomic             Coordinates (Angstroms)
 Number     Number       Type             X           Y           Z
 ---------------------------------------------------------------------
      1         79           0        0.000000    2.036000    3.376438
      2         79           0       -2.036000    0.000000    3.376438
      3         79           0        0.000000   -2.036000    3.376438
      4         79           0        2.036000    0.000000    3.376438
      5         79           0        0.000000    0.000000    1.397597
      6         79           0        0.000000    0.000000   -1.397597
      7         79           0        0.000000   -2.036000   -3.376438
      8         79           0        2.036000    0.000000   -3.376438
      9         79           0        0.000000    2.036000   -3.376438
     10         79           0       -2.036000    0.000000   -3.376438
 ---------------------------------------------------------------------
 Rotational constants (GHZ):      0.0773712      0.0229725      0.0229725
 Leave Link  202 at Fri Jul  8 10:28:29 2022, MaxMem=    32768000 cpu:         0.0
 (Enter /home/palacios/Gaussian09/intel/v.D01/g09/l301.exe)
 General basis read from cards:  (5D, 7F)
 Centers:       1      2      3      4      5      6      7      8      9     10
 S 3 1.00
     Exponent=  4.4090000000D-01 Coefficients= -7.4780000000D-01
     Exponent=  2.6260000000D-01 Coefficients=  8.1760000000D-01
     Exponent=  6.1700000000D-02 Coefficients=  8.1130000000D-01
 P 3 1.00
     Exponent=  6.6420000000D-01 Coefficients= -4.5900000000D-02
     Exponent=  1.0730000000D-01 Coefficients=  3.7780000000D-01
     Exponent=  3.1900000000D-02 Coefficients=  7.2330000000D-01
 D 4 1.00
     Exponent=  1.3517000000D+00 Coefficients=  4.7870000000D-01
     Exponent=  5.1490000000D-01 Coefficients=  4.5820000000D-01
     Exponent=  1.9940000000D-01 Coefficients=  2.2030000000D-01
     Exponent=  7.7600000000D-02 Coefficients=  4.1200000000D-02
 ****
 ======================================================================================================
                                       Pseudopotential Parameters
 ======================================================================================================
  Center     Atomic      Valence      Angular      Power
  Number     Number     Electrons     Momentum     of R      Exponent        Coefficient   SO-Coeffient
 ======================================================================================================
    1         79           11
                                      G and up 
                                                     2        0.9657000       -0.98690200    0.00000000
                                                     2        2.2904000       -9.68630600    0.00000000
                                                     2        6.4383998      -32.57246399    0.00000000
                                                     2       16.3645992     -118.53087616    0.00000000
                                                     2       55.9892998     -286.25463867    0.00000000
                                                     1      171.1013947      -51.27423096    0.00000000
                                      S - G
                                                     2        1.2248000      -84.96929932    0.00000000
                                                     2        1.4336000      280.17764282    0.00000000
                                                     2        1.8929000     -354.64355469    0.00000000
                                                     2        2.6963000      334.33190918    0.00000000
                                                     2        3.9899001     -219.39260864    0.00000000
                                                     2        6.0054998      170.85874939    0.00000000
                                                     1       14.5825996       56.33872986    0.00000000
                                                     0       39.3106995        6.40929985    0.00000000
                                      P - G
                                                     2        0.9064000       -6.91190100    0.00000000
                                                     2        1.0311000       72.12546539    0.00000000
                                                     2        1.3287000     -114.97533417    0.00000000
                                                     2        1.9037000      123.61668396    0.00000000
                                                     2        2.8364000      -71.13571167    0.00000000
                                                     2        4.5883999       79.01660156    0.00000000
                                                     1       11.1981001       51.28700638    0.00000000
                                                     0       32.2957001        5.65198278    0.00000000
                                      D - G
                                                     2        0.2931000       -0.11365700    0.00000000
                                                     2        1.0301000       -2.40402508    0.00000000
                                                     2        2.0186000       62.58111572    0.00000000
                                                     2        3.4391999      255.44717407    0.00000000
                                                     2        5.1578999     -161.80647278    0.00000000
                                                     2        2.5149000     -175.77076721    0.00000000
                                                     1        8.0623999       63.62079239    0.00000000
                                                     0       41.0284996        6.75031996    0.00000000
                                      F - G
                                                     2        0.4335000      -47.60779953    0.00000000
                                                     2        0.5097000      176.31802368    0.00000000
                                                     2        0.5796000     -168.67689514    0.00000000
                                                     2        0.7711000       54.49244690    0.00000000
                                                     2        2.5934999       37.71539307    0.00000000
                                                     2        8.3907003      -24.13967514    0.00000000
                                                     1        6.9294000       49.16802216    0.00000000
                                                     0       22.2588997        4.75958586    0.00000000
    2         79           11
                                      G and up 
                                                     2        0.9657000       -0.98690200    0.00000000
                                                     2        2.2904000       -9.68630600    0.00000000
                                                     2        6.4383998      -32.57246399    0.00000000
                                                     2       16.3645992     -118.53087616    0.00000000
                                                     2       55.9892998     -286.25463867    0.00000000
                                                     1      171.1013947      -51.27423096    0.00000000
                                      S - G
                                                     2        1.2248000      -84.96929932    0.00000000
                                                     2        1.4336000      280.17764282    0.00000000
                                                     2        1.8929000     -354.64355469    0.00000000
                                                     2        2.6963000      334.33190918    0.00000000
                                                     2        3.9899001     -219.39260864    0.00000000
                                                     2        6.0054998      170.85874939    0.00000000
                                                     1       14.5825996       56.33872986    0.00000000
                                                     0       39.3106995        6.40929985    0.00000000
                                      P - G
                                                     2        0.9064000       -6.91190100    0.00000000
                                                     2        1.0311000       72.12546539    0.00000000
                                                     2        1.3287000     -114.97533417    0.00000000
                                                     2        1.9037000      123.61668396    0.00000000
                                                     2        2.8364000      -71.13571167    0.00000000
                                                     2        4.5883999       79.01660156    0.00000000
                                                     1       11.1981001       51.28700638    0.00000000
                                                     0       32.2957001        5.65198278    0.00000000
                                      D - G
                                                     2        0.2931000       -0.11365700    0.00000000
                                                     2        1.0301000       -2.40402508    0.00000000
                                                     2        2.0186000       62.58111572    0.00000000
                                                     2        3.4391999      255.44717407    0.00000000
                                                     2        5.1578999     -161.80647278    0.00000000
                                                     2        2.5149000     -175.77076721    0.00000000
                                                     1        8.0623999       63.62079239    0.00000000
                                                     0       41.0284996        6.75031996    0.00000000
                                      F - G
                                                     2        0.4335000      -47.60779953    0.00000000
                                                     2        0.5097000      176.31802368    0.00000000
                                                     2        0.5796000     -168.67689514    0.00000000
                                                     2        0.7711000       54.49244690    0.00000000
                                                     2        2.5934999       37.71539307    0.00000000
                                                     2        8.3907003      -24.13967514    0.00000000
                                                     1        6.9294000       49.16802216    0.00000000
                                                     0       22.2588997        4.75958586    0.00000000
    3         79           11
                                      G and up 
                                                     2        0.9657000       -0.98690200    0.00000000
                                                     2        2.2904000       -9.68630600    0.00000000
                                                     2        6.4383998      -32.57246399    0.00000000
                                                     2       16.3645992     -118.53087616    0.00000000
                                                     2       55.9892998     -286.25463867    0.00000000
                                                     1      171.1013947      -51.27423096    0.00000000
                                      S - G
                                                     2        1.2248000      -84.96929932    0.00000000
                                                     2        1.4336000      280.17764282    0.00000000
                                                     2        1.8929000     -354.64355469    0.00000000
                                                     2        2.6963000      334.33190918    0.00000000
                                                     2        3.9899001     -219.39260864    0.00000000
                                                     2        6.0054998      170.85874939    0.00000000
                                                     1       14.5825996       56.33872986    0.00000000
                                                     0       39.3106995        6.40929985    0.00000000
                                      P - G
                                                     2        0.9064000       -6.91190100    0.00000000
                                                     2        1.0311000       72.12546539    0.00000000
                                                     2        1.3287000     -114.97533417    0.00000000
                                                     2        1.9037000      123.61668396    0.00000000
                                                     2        2.8364000      -71.13571167    0.00000000
                                                     2        4.5883999       79.01660156    0.00000000
                                                     1       11.1981001       51.28700638    0.00000000
                                                     0       32.2957001        5.65198278    0.00000000
                                      D - G
                                                     2        0.2931000       -0.11365700    0.00000000
                                                     2        1.0301000       -2.40402508    0.00000000
                                                     2        2.0186000       62.58111572    0.00000000
                                                     2        3.4391999      255.44717407    0.00000000
                                                     2        5.1578999     -161.80647278    0.00000000
                                                     2        2.5149000     -175.77076721    0.00000000
                                                     1        8.0623999       63.62079239    0.00000000
                                                     0       41.0284996        6.75031996    0.00000000
                                      F - G
                                                     2        0.4335000      -47.60779953    0.00000000
                                                     2        0.5097000      176.31802368    0.00000000
                                                     2        0.5796000     -168.67689514    0.00000000
                                                     2        0.7711000       54.49244690    0.00000000
                                                     2        2.5934999       37.71539307    0.00000000
                                                     2        8.3907003      -24.13967514    0.00000000
                                                     1        6.9294000       49.16802216    0.00000000
                                                     0       22.2588997        4.75958586    0.00000000
    4         79           11
                                      G and up 
                                                     2        0.9657000       -0.98690200    0.00000000
                                                     2        2.2904000       -9.68630600    0.00000000
                                                     2        6.4383998      -32.57246399    0.00000000
                                                     2       16.3645992     -118.53087616    0.00000000
                                                     2       55.9892998     -286.25463867    0.00000000
                                                     1      171.1013947      -51.27423096    0.00000000
                                      S - G
                                                     2        1.2248000      -84.96929932    0.00000000
                                                     2        1.4336000      280.17764282    0.00000000
                                                     2        1.8929000     -354.64355469    0.00000000
                                                     2        2.6963000      334.33190918    0.00000000
                                                     2        3.9899001     -219.39260864    0.00000000
                                                     2        6.0054998      170.85874939    0.00000000
                                                     1       14.5825996       56.33872986    0.00000000
                                                     0       39.3106995        6.40929985    0.00000000
                                      P - G
                                                     2        0.9064000       -6.91190100    0.00000000
                                                     2        1.0311000       72.12546539    0.00000000
                                                     2        1.3287000     -114.97533417    0.00000000
                                                     2        1.9037000      123.61668396    0.00000000
                                                     2        2.8364000      -71.13571167    0.00000000
                                                     2        4.5883999       79.01660156    0.00000000
                                                     1       11.1981001       51.28700638    0.00000000
                                                     0       32.2957001        5.65198278    0.00000000
                                      D - G
                                                     2        0.2931000       -0.11365700    0.00000000
                                                     2        1.0301000       -2.40402508    0.00000000
                                                     2        2.0186000       62.58111572    0.00000000
                                                     2        3.4391999      255.44717407    0.00000000
                                                     2        5.1578999     -161.80647278    0.00000000
                                                     2        2.5149000     -175.77076721    0.00000000
                                                     1        8.0623999       63.62079239    0.00000000
                                                     0       41.0284996        6.75031996    0.00000000
                                      F - G
                                                     2        0.4335000      -47.60779953    0.00000000
                                                     2        0.5097000      176.31802368    0.00000000
                                                     2        0.5796000     -168.67689514    0.00000000
                                                     2        0.7711000       54.49244690    0.00000000
                                                     2        2.5934999       37.71539307    0.00000000
                                                     2        8.3907003      -24.13967514    0.00000000
                                                     1        6.9294000       49.16802216    0.00000000
                                                     0       22.2588997        4.75958586    0.00000000
    5         79           11
                                      G and up 
                                                     2        0.9657000       -0.98690200    0.00000000
                                                     2        2.2904000       -9.68630600    0.00000000
                                                     2        6.4383998      -32.57246399    0.00000000
                                                     2       16.3645992     -118.53087616    0.00000000
                                                     2       55.9892998     -286.25463867    0.00000000
                                                     1      171.1013947      -51.27423096    0.00000000
                                      S - G
                                                     2        1.2248000      -84.96929932    0.00000000
                                                     2        1.4336000      280.17764282    0.00000000
                                                     2        1.8929000     -354.64355469    0.00000000
                                                     2        2.6963000      334.33190918    0.00000000
                                                     2        3.9899001     -219.39260864    0.00000000
                                                     2        6.0054998      170.85874939    0.00000000
                                                     1       14.5825996       56.33872986    0.00000000
                                                     0       39.3106995        6.40929985    0.00000000
                                      P - G
                                                     2        0.9064000       -6.91190100    0.00000000
                                                     2        1.0311000       72.12546539    0.00000000
                                                     2        1.3287000     -114.97533417    0.00000000
                                                     2        1.9037000      123.61668396    0.00000000
                                                     2        2.8364000      -71.13571167    0.00000000
                                                     2        4.5883999       79.01660156    0.00000000
                                                     1       11.1981001       51.28700638    0.00000000
                                                     0       32.2957001        5.65198278    0.00000000
                                      D - G
                                                     2        0.2931000       -0.11365700    0.00000000
                                                     2        1.0301000       -2.40402508    0.00000000
                                                     2        2.0186000       62.58111572    0.00000000
                                                     2        3.4391999      255.44717407    0.00000000
                                                     2        5.1578999     -161.80647278    0.00000000
                                                     2        2.5149000     -175.77076721    0.00000000
                                                     1        8.0623999       63.62079239    0.00000000
                                                     0       41.0284996        6.75031996    0.00000000
                                      F - G
                                                     2        0.4335000      -47.60779953    0.00000000
                                                     2        0.5097000      176.31802368    0.00000000
                                                     2        0.5796000     -168.67689514    0.00000000
                                                     2        0.7711000       54.49244690    0.00000000
                                                     2        2.5934999       37.71539307    0.00000000
                                                     2        8.3907003      -24.13967514    0.00000000
                                                     1        6.9294000       49.16802216    0.00000000
                                                     0       22.2588997        4.75958586    0.00000000
    6         79           11
                                      G and up 
                                                     2        0.9657000       -0.98690200    0.00000000
                                                     2        2.2904000       -9.68630600    0.00000000
                                                     2        6.4383998      -32.57246399    0.00000000
                                                     2       16.3645992     -118.53087616    0.00000000
                                                     2       55.9892998     -286.25463867    0.00000000
                                                     1      171.1013947      -51.27423096    0.00000000
                                      S - G
                                                     2        1.2248000      -84.96929932    0.00000000
                                                     2        1.4336000      280.17764282    0.00000000
                                                     2        1.8929000     -354.64355469    0.00000000
                                                     2        2.6963000      334.33190918    0.00000000
                                                     2        3.9899001     -219.39260864    0.00000000
                                                     2        6.0054998      170.85874939    0.00000000
                                                     1       14.5825996       56.33872986    0.00000000
                                                     0       39.3106995        6.40929985    0.00000000
                                      P - G
                                                     2        0.9064000       -6.91190100    0.00000000
                                                     2        1.0311000       72.12546539    0.00000000
                                                     2        1.3287000     -114.97533417    0.00000000
                                                     2        1.9037000      123.61668396    0.00000000
                                                     2        2.8364000      -71.13571167    0.00000000
                                                     2        4.5883999       79.01660156    0.00000000
                                                     1       11.1981001       51.28700638    0.00000000
                                                     0       32.2957001        5.65198278    0.00000000
                                      D - G
                                                     2        0.2931000       -0.11365700    0.00000000
                                                     2        1.0301000       -2.40402508    0.00000000
                                                     2        2.0186000       62.58111572    0.00000000
                                                     2        3.4391999      255.44717407    0.00000000
                                                     2        5.1578999     -161.80647278    0.00000000
                                                     2        2.5149000     -175.77076721    0.00000000
                                                     1        8.0623999       63.62079239    0.00000000
                                                     0       41.0284996        6.75031996    0.00000000
                                      F - G
                                                     2        0.4335000      -47.60779953    0.00000000
                                                     2        0.5097000      176.31802368    0.00000000
                                                     2        0.5796000     -168.67689514    0.00000000
                                                     2        0.7711000       54.49244690    0.00000000
                                                     2        2.5934999       37.71539307    0.00000000
                                                     2        8.3907003      -24.13967514    0.00000000
                                                     1        6.9294000       49.16802216    0.00000000
                                                     0       22.2588997        4.75958586    0.00000000
    7         79           11
                                      G and up 
                                                     2        0.9657000       -0.98690200    0.00000000
                                                     2        2.2904000       -9.68630600    0.00000000
                                                     2        6.4383998      -32.57246399    0.00000000
                                                     2       16.3645992     -118.53087616    0.00000000
                                                     2       55.9892998     -286.25463867    0.00000000
                                                     1      171.1013947      -51.27423096    0.00000000
                                      S - G
                                                     2        1.2248000      -84.96929932    0.00000000
                                                     2        1.4336000      280.17764282    0.00000000
                                                     2        1.8929000     -354.64355469    0.00000000
                                                     2        2.6963000      334.33190918    0.00000000
                                                     2        3.9899001     -219.39260864    0.00000000
                                                     2        6.0054998      170.85874939    0.00000000
                                                     1       14.5825996       56.33872986    0.00000000
                                                     0       39.3106995        6.40929985    0.00000000
                                      P - G
                                                     2        0.9064000       -6.91190100    0.00000000
                                                     2        1.0311000       72.12546539    0.00000000
                                                     2        1.3287000     -114.97533417    0.00000000
                                                     2        1.9037000      123.61668396    0.00000000
                                                     2        2.8364000      -71.13571167    0.00000000
                                                     2        4.5883999       79.01660156    0.00000000
                                                     1       11.1981001       51.28700638    0.00000000
                                                     0       32.2957001        5.65198278    0.00000000
                                      D - G
                                                     2        0.2931000       -0.11365700    0.00000000
                                                     2        1.0301000       -2.40402508    0.00000000
                                                     2        2.0186000       62.58111572    0.00000000
                                                     2        3.4391999      255.44717407    0.00000000
                                                     2        5.1578999     -161.80647278    0.00000000
                                                     2        2.5149000     -175.77076721    0.00000000
                                                     1        8.0623999       63.62079239    0.00000000
                                                     0       41.0284996        6.75031996    0.00000000
                                      F - G
                                                     2        0.4335000      -47.60779953    0.00000000
                                                     2        0.5097000      176.31802368    0.00000000
                                                     2        0.5796000     -168.67689514    0.00000000
                                                     2        0.7711000       54.49244690    0.00000000
                                                     2        2.5934999       37.71539307    0.00000000
                                                     2        8.3907003      -24.13967514    0.00000000
                                                     1        6.9294000       49.16802216    0.00000000
                                                     0       22.2588997        4.75958586    0.00000000
    8         79           11
                                      G and up 
                                                     2        0.9657000       -0.98690200    0.00000000
                                                     2        2.2904000       -9.68630600    0.00000000
                                                     2        6.4383998      -32.57246399    0.00000000
                                                     2       16.3645992     -118.53087616    0.00000000
                                                     2       55.9892998     -286.25463867    0.00000000
                                                     1      171.1013947      -51.27423096    0.00000000
                                      S - G
                                                     2        1.2248000      -84.96929932    0.00000000
                                                     2        1.4336000      280.17764282    0.00000000
                                                     2        1.8929000     -354.64355469    0.00000000
                                                     2        2.6963000      334.33190918    0.00000000
                                                     2        3.9899001     -219.39260864    0.00000000
                                                     2        6.0054998      170.85874939    0.00000000
                                                     1       14.5825996       56.33872986    0.00000000
                                                     0       39.3106995        6.40929985    0.00000000
                                      P - G
                                                     2        0.9064000       -6.91190100    0.00000000
                                                     2        1.0311000       72.12546539    0.00000000
                                                     2        1.3287000     -114.97533417    0.00000000
                                                     2        1.9037000      123.61668396    0.00000000
                                                     2        2.8364000      -71.13571167    0.00000000
                                                     2        4.5883999       79.01660156    0.00000000
                                                     1       11.1981001       51.28700638    0.00000000
                                                     0       32.2957001        5.65198278    0.00000000
                                      D - G
                                                     2        0.2931000       -0.11365700    0.00000000
                                                     2        1.0301000       -2.40402508    0.00000000
                                                     2        2.0186000       62.58111572    0.00000000
                                                     2        3.4391999      255.44717407    0.00000000
                                                     2        5.1578999     -161.80647278    0.00000000
                                                     2        2.5149000     -175.77076721    0.00000000
                                                     1        8.0623999       63.62079239    0.00000000
                                                     0       41.0284996        6.75031996    0.00000000
                                      F - G
                                                     2        0.4335000      -47.60779953    0.00000000
                                                     2        0.5097000      176.31802368    0.00000000
                                                     2        0.5796000     -168.67689514    0.00000000
                                                     2        0.7711000       54.49244690    0.00000000
                                                     2        2.5934999       37.71539307    0.00000000
                                                     2        8.3907003      -24.13967514    0.00000000
                                                     1        6.9294000       49.16802216    0.00000000
                                                     0       22.2588997        4.75958586    0.00000000
    9         79           11
                                      G and up 
                                                     2        0.9657000       -0.98690200    0.00000000
                                                     2        2.2904000       -9.68630600    0.00000000
                                                     2        6.4383998      -32.57246399    0.00000000
                                                     2       16.3645992     -118.53087616    0.00000000
                                                     2       55.9892998     -286.25463867    0.00000000
                                                     1      171.1013947      -51.27423096    0.00000000
                                      S - G
                                                     2        1.2248000      -84.96929932    0.00000000
                                                     2        1.4336000      280.17764282    0.00000000
                                                     2        1.8929000     -354.64355469    0.00000000
                                                     2        2.6963000      334.33190918    0.00000000
                                                     2        3.9899001     -219.39260864    0.00000000
                                                     2        6.0054998      170.85874939    0.00000000
                                                     1       14.5825996       56.33872986    0.00000000
                                                     0       39.3106995        6.40929985    0.00000000
                                      P - G
                                                     2        0.9064000       -6.91190100    0.00000000
                                                     2        1.0311000       72.12546539    0.00000000
                                                     2        1.3287000     -114.97533417    0.00000000
                                                     2        1.9037000      123.61668396    0.00000000
                                                     2        2.8364000      -71.13571167    0.00000000
                                                     2        4.5883999       79.01660156    0.00000000
                                                     1       11.1981001       51.28700638    0.00000000
                                                     0       32.2957001        5.65198278    0.00000000
                                      D - G
                                                     2        0.2931000       -0.11365700    0.00000000
                                                     2        1.0301000       -2.40402508    0.00000000
                                                     2        2.0186000       62.58111572    0.00000000
                                                     2        3.4391999      255.44717407    0.00000000
                                                     2        5.1578999     -161.80647278    0.00000000
                                                     2        2.5149000     -175.77076721    0.00000000
                                                     1        8.0623999       63.62079239    0.00000000
                                                     0       41.0284996        6.75031996    0.00000000
                                      F - G
                                                     2        0.4335000      -47.60779953    0.00000000
                                                     2        0.5097000      176.31802368    0.00000000
                                                     2        0.5796000     -168.67689514    0.00000000
                                                     2        0.7711000       54.49244690    0.00000000
                                                     2        2.5934999       37.71539307    0.00000000
                                                     2        8.3907003      -24.13967514    0.00000000
                                                     1        6.9294000       49.16802216    0.00000000
                                                     0       22.2588997        4.75958586    0.00000000
   10         79           11
                                      G and up 
                                                     2        0.9657000       -0.98690200    0.00000000
                                                     2        2.2904000       -9.68630600    0.00000000
                                                     2        6.4383998      -32.57246399    0.00000000
                                                     2       16.3645992     -118.53087616    0.00000000
                                                     2       55.9892998     -286.25463867    0.00000000
                                                     1      171.1013947      -51.27423096    0.00000000
                                      S - G
                                                     2        1.2248000      -84.96929932    0.00000000
                                                     2        1.4336000      280.17764282    0.00000000
                                                     2        1.8929000     -354.64355469    0.00000000
                                                     2        2.6963000      334.33190918    0.00000000
                                                     2        3.9899001     -219.39260864    0.00000000
                                                     2        6.0054998      170.85874939    0.00000000
                                                     1       14.5825996       56.33872986    0.00000000
                                                     0       39.3106995        6.40929985    0.00000000
                                      P - G
                                                     2        0.9064000       -6.91190100    0.00000000
                                                     2        1.0311000       72.12546539    0.00000000
                                                     2        1.3287000     -114.97533417    0.00000000
                                                     2        1.9037000      123.61668396    0.00000000
                                                     2        2.8364000      -71.13571167    0.00000000
                                                     2        4.5883999       79.01660156    0.00000000
                                                     1       11.1981001       51.28700638    0.00000000
                                                     0       32.2957001        5.65198278    0.00000000
                                      D - G
                                                     2        0.2931000       -0.11365700    0.00000000
                                                     2        1.0301000       -2.40402508    0.00000000
                                                     2        2.0186000       62.58111572    0.00000000
                                                     2        3.4391999      255.44717407    0.00000000
                                                     2        5.1578999     -161.80647278    0.00000000
                                                     2        2.5149000     -175.77076721    0.00000000
                                                     1        8.0623999       63.62079239    0.00000000
                                                     0       41.0284996        6.75031996    0.00000000
                                      F - G
                                                     2        0.4335000      -47.60779953    0.00000000
                                                     2        0.5097000      176.31802368    0.00000000
                                                     2        0.5796000     -168.67689514    0.00000000
                                                     2        0.7711000       54.49244690    0.00000000
                                                     2        2.5934999       37.71539307    0.00000000
                                                     2        8.3907003      -24.13967514    0.00000000
                                                     1        6.9294000       49.16802216    0.00000000
                                                     0       22.2588997        4.75958586    0.00000000
 ======================================================================================================
 Ernie: Thresh=  0.10000D-02 Tol=  0.10000D-05 Strict=F.
 AO basis set in the form of general basis input (Overlap normalization):
      1 0
 S   3 1.00       0.000000000000
      0.4409000000D+00 -0.7477982533D+00
      0.2626000000D+00  0.8175980902D+00
      0.6170000000D-01  0.8112981050D+00
 P   3 1.00       0.000000000000
      0.6642000000D+00 -0.4588320497D-01
      0.1073000000D+00  0.3776617612D+00
      0.3190000000D-01  0.7230353411D+00
 D   4 1.00       0.000000000000
      0.1351700000D+01  0.4787297528D+00
      0.5149000000D+00  0.4582284786D+00
      0.1994000000D+00  0.2203136924D+00
      0.7760000000D-01  0.4120256072D-01
 ****
      2 0
 S   3 1.00       0.000000000000
      0.4409000000D+00 -0.7477982533D+00
      0.2626000000D+00  0.8175980902D+00
      0.6170000000D-01  0.8112981050D+00
 P   3 1.00       0.000000000000
      0.6642000000D+00 -0.4588320497D-01
      0.1073000000D+00  0.3776617612D+00
      0.3190000000D-01  0.7230353411D+00
 D   4 1.00       0.000000000000
      0.1351700000D+01  0.4787297528D+00
      0.5149000000D+00  0.4582284786D+00
      0.1994000000D+00  0.2203136924D+00
      0.7760000000D-01  0.4120256072D-01
 ****
      3 0
 S   3 1.00       0.000000000000
      0.4409000000D+00 -0.7477982533D+00
      0.2626000000D+00  0.8175980902D+00
      0.6170000000D-01  0.8112981050D+00
 P   3 1.00       0.000000000000
      0.6642000000D+00 -0.4588320497D-01
      0.1073000000D+00  0.3776617612D+00
      0.3190000000D-01  0.7230353411D+00
 D   4 1.00       0.000000000000
      0.1351700000D+01  0.4787297528D+00
      0.5149000000D+00  0.4582284786D+00
      0.1994000000D+00  0.2203136924D+00
      0.7760000000D-01  0.4120256072D-01
 ****
      4 0
 S   3 1.00       0.000000000000
      0.4409000000D+00 -0.7477982533D+00
      0.2626000000D+00  0.8175980902D+00
      0.6170000000D-01  0.8112981050D+00
 P   3 1.00       0.000000000000
      0.6642000000D+00 -0.4588320497D-01
      0.1073000000D+00  0.3776617612D+00
      0.3190000000D-01  0.7230353411D+00
 D   4 1.00       0.000000000000
      0.1351700000D+01  0.4787297528D+00
      0.5149000000D+00  0.4582284786D+00
      0.1994000000D+00  0.2203136924D+00
      0.7760000000D-01  0.4120256072D-01
 ****
      5 0
 S   3 1.00       0.000000000000
      0.4409000000D+00 -0.7477982533D+00
      0.2626000000D+00  0.8175980902D+00
      0.6170000000D-01  0.8112981050D+00
 P   3 1.00       0.000000000000
      0.6642000000D+00 -0.4588320497D-01
      0.1073000000D+00  0.3776617612D+00
      0.3190000000D-01  0.7230353411D+00
 D   4 1.00       0.000000000000
      0.1351700000D+01  0.4787297528D+00
      0.5149000000D+00  0.4582284786D+00
      0.1994000000D+00  0.2203136924D+00
      0.7760000000D-01  0.4120256072D-01
 ****
      6 0
 S   3 1.00       0.000000000000
      0.4409000000D+00 -0.7477982533D+00
      0.2626000000D+00  0.8175980902D+00
      0.6170000000D-01  0.8112981050D+00
 P   3 1.00       0.000000000000
      0.6642000000D+00 -0.4588320497D-01
      0.1073000000D+00  0.3776617612D+00
      0.3190000000D-01  0.7230353411D+00
 D   4 1.00       0.000000000000
      0.1351700000D+01  0.4787297528D+00
      0.5149000000D+00  0.4582284786D+00
      0.1994000000D+00  0.2203136924D+00
      0.7760000000D-01  0.4120256072D-01
 ****
      7 0
 S   3 1.00       0.000000000000
      0.4409000000D+00 -0.7477982533D+00
      0.2626000000D+00  0.8175980902D+00
      0.6170000000D-01  0.8112981050D+00
 P   3 1.00       0.000000000000
      0.6642000000D+00 -0.4588320497D-01
      0.1073000000D+00  0.3776617612D+00
      0.3190000000D-01  0.7230353411D+00
 D   4 1.00       0.000000000000
      0.1351700000D+01  0.4787297528D+00
      0.5149000000D+00  0.4582284786D+00
      0.1994000000D+00  0.2203136924D+00
      0.7760000000D-01  0.4120256072D-01
 ****
      8 0
 S   3 1.00       0.000000000000
      0.4409000000D+00 -0.7477982533D+00
      0.2626000000D+00  0.8175980902D+00
      0.6170000000D-01  0.8112981050D+00
 P   3 1.00       0.000000000000
      0.6642000000D+00 -0.4588320497D-01
      0.1073000000D+00  0.3776617612D+00
      0.3190000000D-01  0.7230353411D+00
 D   4 1.00       0.000000000000
      0.1351700000D+01  0.4787297528D+00
      0.5149000000D+00  0.4582284786D+00
      0.1994000000D+00  0.2203136924D+00
      0.7760000000D-01  0.4120256072D-01
 ****
      9 0
 S   3 1.00       0.000000000000
      0.4409000000D+00 -0.7477982533D+00
      0.2626000000D+00  0.8175980902D+00
      0.6170000000D-01  0.8112981050D+00
 P   3 1.00       0.000000000000
      0.6642000000D+00 -0.4588320497D-01
      0.1073000000D+00  0.3776617612D+00
      0.3190000000D-01  0.7230353411D+00
 D   4 1.00       0.000000000000
      0.1351700000D+01  0.4787297528D+00
      0.5149000000D+00  0.4582284786D+00
      0.1994000000D+00  0.2203136924D+00
      0.7760000000D-01  0.4120256072D-01
 ****
     10 0
 S   3 1.00       0.000000000000
      0.4409000000D+00 -0.7477982533D+00
      0.2626000000D+00  0.8175980902D+00
      0.6170000000D-01  0.8112981050D+00
 P   3 1.00       0.000000000000
      0.6642000000D+00 -0.4588320497D-01
      0.1073000000D+00  0.3776617612D+00
      0.3190000000D-01  0.7230353411D+00
 D   4 1.00       0.000000000000
      0.1351700000D+01  0.4787297528D+00
      0.5149000000D+00  0.4582284786D+00
      0.1994000000D+00  0.2203136924D+00
      0.7760000000D-01  0.4120256072D-01
 ****

 There are    19 symmetry adapted cartesian basis functions of AG  symmetry.
 There are     7 symmetry adapted cartesian basis functions of B1G symmetry.
 There are    12 symmetry adapted cartesian basis functions of B2G symmetry.
 There are    12 symmetry adapted cartesian basis functions of B3G symmetry.
 There are     7 symmetry adapted cartesian basis functions of AU  symmetry.
 There are    19 symmetry adapted cartesian basis functions of B1U symmetry.
 There are    12 symmetry adapted cartesian basis functions of B2U symmetry.
 There are    12 symmetry adapted cartesian basis functions of B3U symmetry.
 There are    16 symmetry adapted basis functions of AG  symmetry.
 There are     7 symmetry adapted basis functions of B1G symmetry.
 There are    11 symmetry adapted basis functions of B2G symmetry.
 There are    11 symmetry adapted basis functions of B3G symmetry.
 There are     7 symmetry adapted basis functions of AU  symmetry.
 There are    16 symmetry adapted basis functions of B1U symmetry.
 There are    11 symmetry adapted basis functions of B2U symmetry.
 There are    11 symmetry adapted basis functions of B3U symmetry.
    90 basis functions,   360 primitive gaussians,   100 cartesian basis functions
    55 alpha electrons       55 beta electrons
       nuclear repulsion energy       683.0084560437 Hartrees.
 IExCor=  205 DFT=T Ex=S Corr=VWN ExCW=0 ScaHFX=  0.000000
 ScaDFX=  1.000000  1.000000  1.000000  1.000000 ScalE2=  1.000000  1.000000
 IRadAn=      0 IRanWt=     -1 IRanGd=            0 ICorTp=0 IEmpDi=  4
 NAtoms=   10 NActive=   10 NUniq=    2 SFac= 4.00D+00 NAtFMM=   60 NAOKFM=F Big=F
 Integral buffers will be    131072 words long.
 Raffenetti 2 integral format.
 Two-electron integral symmetry is turned on.
 Leave Link  301 at Fri Jul  8 10:28:29 2022, MaxMem=    32768000 cpu:         0.3
 (Enter /home/palacios/Gaussian09/intel/v.D01/g09/l302.exe)
 NPDir=0 NMtPBC=     1 NCelOv=     1 NCel=       1 NClECP=     1 NCelD=      1
         NCelK=      1 NCelE2=     1 NClLst=     1 CellRange=     0.0.
 One-electron integrals computed using PRISM.
 One-electron integral symmetry used in STVInt
  16 Symmetry operations used in ECPInt.
 ECPInt:  NShTT=     465 NPrTT=    5170 LenC2=     466 LenP2D=    5006.
 LDataN:  DoStor=T MaxTD1= 6 Len=  172
 NBasis=    90 RedAO= T EigKep=  2.95D-02  NBF=    16     7    11    11     7    16    11    11
 NBsUse=    90 1.00D-06 EigRej= -1.00D+00 NBFU=    16     7    11    11     7    16    11    11
 Precomputing XC quadrature grid using
 IXCGrd= 4 IRadAn=           0 IRanWt=          -1 IRanGd=           0 AccXCQ= 0.00D+00.
 Defaulting to unpruned grid for atomic number  79.
 Defaulting to unpruned grid for atomic number  79.
 Defaulting to unpruned grid for atomic number  79.
 Defaulting to unpruned grid for atomic number  79.
 Generated NRdTot=       0 NPtTot=           0 NUsed=           0 NTot=          32
 NSgBfM=   100   100   100   100   100 MxSgAt=    10 MxSgA2=    10.
 Leave Link  302 at Fri Jul  8 10:28:30 2022, MaxMem=    32768000 cpu:         3.1
 (Enter /home/palacios/Gaussian09/intel/v.D01/g09/l303.exe)
 DipDrv:  MaxL=1.
 Leave Link  303 at Fri Jul  8 10:28:30 2022, MaxMem=    32768000 cpu:         0.1
 (Enter /home/palacios/Gaussian09/intel/v.D01/g09/l401.exe)
 ExpMin= 3.19D-02 ExpMax= 1.35D+00 ExpMxC= 1.35D+00 IAcc=3 IRadAn=         5 AccDes= 0.00D+00
 Harris functional with IExCor=  205 and IRadAn=       5 diagonalized for initial guess.
 HarFok:  IExCor=  205 AccDes= 0.00D+00 IRadAn=         5 IDoV= 1 UseB2=F ITyADJ=14
 ICtDFT=  3500011 ScaDFX=  1.000000  1.000000  1.000000  1.000000
 Defaulting to unpruned grid for atomic number  79.
 Defaulting to unpruned grid for atomic number  79.
 Defaulting to unpruned grid for atomic number  79.
 Defaulting to unpruned grid for atomic number  79.
 FoFCou: FMM=F IPFlag=           0 FMFlag=      100000 FMFlg1=           0
         NFxFlg=           0 DoJE=T BraDBF=F KetDBF=T FulRan=T
         wScrn=  0.000000 ICntrl=     500 IOpCl=  0 I1Cent=   200000004 NGrid=           0
         NMat0=    1 NMatS0=      1 NMatT0=    0 NMatD0=    1 NMtDS0=    0 NMtDT0=    0
 Petite list used in FoFCou.
 Harris En= -348.312125334693    
 JPrj=0 DoOrth=F DoCkMO=F.
 Initial guess orbital symmetries:
       Occupied  (A1G) (EU) (EU) (A2U) (B2G) (B1U) (EG) (EG) (B1G)
                 (A1G) (A2U) (B2U) (B2G) (EU) (EU) (EG) (EG) (B1U)
                 (A1G) (A2U) (EU) (EU) (A1G) (EG) (EG) (EU) (EU)
                 (EG) (EG) (B2G) (EU) (EU) (EG) (EG) (B1U) (B1G)
                 (B2U) (A2G) (A1U) (B1G) (B2U) (EU) (EU) (A2U)
                 (B1G) (B2U) (A2G) (A1U) (EG) (EG) (A2U) (A1G)
                 (EU) (EU) (A1G)
       Virtual   (EG) (EG) (B1G) (B2U) (A2U) (B2G) (EU) (EU) (B1U)
                 (A1G) (A2U) (EG) (EG) (EU) (EU) (EG) (EG) (B1G)
                 (B2U) (EU) (EU) (EG) (EG) (A1G) (A2G) (A1U) (EU)
                 (EU) (A2U) (B1G) (EG) (EG) (B2U) (A1G) (A2U)
 The electronic state of the initial guess is 1-A1G.
 Leave Link  401 at Fri Jul  8 10:28:31 2022, MaxMem=    32768000 cpu:         0.8
 (Enter ../../bin/l502.exe)
 Closed shell SCF:
 Using DIIS extrapolation, IDIIS=  1040.
 Integral symmetry usage will be decided dynamically.
 Keep J ints in memory in symmetry-blocked form, NReq=9505172.
 IVT=       50998 IEndB=       50998 NGot=    32768000 MDV=    31649479
 LenX=    31649479 LenY=    31639038
 Requested convergence on RMS density matrix=1.00D-06 within 128 cycles.
 Requested convergence on MAX density matrix=1.00D-04.
 Requested convergence on             energy=1.00D-04.
 No special actions if energy rises.
 FoFCou: FMM=F IPFlag=           0 FMFlag=           0 FMFlg1=           0
         NFxFlg=           0 DoJE=F BraDBF=F KetDBF=F FulRan=T
         wScrn=  0.000000 ICntrl=     600 IOpCl=  0 I1Cent=           0 NGrid=           0
         NMat0=    1 NMatS0=   4095 NMatT0=    0 NMatD0=    1 NMtDS0=    0 NMtDT0=    0
 Petite list used in FoFCou.

 Cycle   1  Pass 1  IDiag  1:
 
  ****************************************************************** 
  ***                                                            *** 
  ***                      A l i c a n t e                       *** 
  ***                      N a n o                               *** 
  ***                      T r a n s p o r t                     *** 
  ***                      G 0 9                                 *** 
  ***                                                            *** 
  ****************************************************************** 
  ***                     Version: 2.5.2                         *** 
  ****************************************************************** 
  *  Copyright (c) by                                              * 
  *                                                                * 
  *  Juan Jose Palacios (1)                                        * 
  *  David Jacob (2)                                               * 
  *  Maria Soriano (1,5)                                           * 
  *  Angel J. Perez-Jimenez (3)                                    * 
  *  Emilio SanFabian (3)                                          * 
  *  Jose Antonio Antonio Verges (4)                               * 
  *  Enrique Louis (5)                                             * 
  *  Wynand Dednam (5)                                             * 
  *                                                                * 
  * (1) Departamento de Fisica de la Materia Condensada            * 
  *     Universidad Autonoma de Madrid                             * 
  *     28049 Madrid (SPAIN)                                       * 
  * (2) Theory Department                                          * 
  *     Max-Planck-Institute for Microstructure Physics            * 
  *     Halle, 06120 (GERMANY)                                     * 
  * (3) Departamento de Quimica Fisica                             * 
  *     Universidad de Alicante                                    * 
  *     03690 Alicante (SPAIN)                                     * 
  * (4) Insto. de Ciencias de Materiales de Madrid (ICMM)          * 
  *     Consejo Superior de Investigacion y Ciencia (CSIC)         * 
  *     28049 Madrid (SPAIN)                                       * 
  * (5) Departamento de Fisica Aplicada                            * 
  *     Universidad de Alicante                                    * 
  *     03690 Alicante (SPAIN)                                     * 
  *                                                                * 
  ****************************************************************** 
 
  ****************************************************************** 
  *                                                                * 
  *              Initializing ANT.G09 modules                      * 
  *                                                                * 
  ****************************************************************** 
 
 Scanning Au4-Au-Au-Au4.ant file for parameter specifications...
 Done.
 ****************************
 Basic calculation parameters
 ****************************
 ALPHA      =   2.000000000000000E-002
 NPULAY     =                      4
 CHARGEACC  =   1.000000000000000E-005  %
 FERMIACC   =   1.000000000000000E-005  %
 PACC       =   1.000000000000000E-007  %
 FULLACC    =  F
 MAX        =                     15
 SELFACC    =   1.000000000000000E-006
 SMALL      =   0.100000000000000     
 SMALLD     =   0.100000000000000       A
 BIASVOLT   =   0.000000000000000E+000  V
 QEXCESS    =   0.000000000000000E+000 electrons
 ETA        =   1.000000000000000E-010
 GLUE       =    1.00000000000000     
 FERMISTART =   -5.00000000000000       eV
 SOC        =  F
 SOCFAC     =   0.000000000000000E+000
 SOC_CFF_P  =   0.000000000000000E+000  eV
 SOC_CFF_D  =   0.000000000000000E+000  eV
 SOC_CFF_F  =   0.000000000000000E+000  eV
 ROT        =  F
 THETA      =   0.000000000000000E+000  degrees
 PHI        =   0.000000000000000E+000  degrees
 SL         =   1.000000000000000E-002
 DMIMAG     =  F
 FMIXING    =  F
 ************************
 Bethe lattice parameters
 ************************
 TYPE1      = BETHE     
 TYPE2      = BETHE     
 BLPAR1     = Papacon             
 BLPAR2     = Papacon             
 NEMBED1    = ? 
 NEMBED2    = ? 
 NPC        =                      1
 NATOMEL1   = ? 
 NATOMEL2   = ? 
 OVERLAP    = System Overlap
 *************************
 Spin transport parameters
 *************************
 SWOFFSPL   =   1.000000000000000E-003
 NSPINLOCK  =                      0
 NALPHA     =                     -1
 NBETA      =                     -1
 DU         =  F
 UD         =  F
 DD         =  F
 MRSTART    =                      0
 SPINDEL    =  F
 SPINEDIT   =                      0
 SOCFACATOM =                      0
 SPINROTATO =                      0
 SOCEDIT    =                      0
 ***********************
 Correlations parameters
 ***********************
 CORRBLOCKS =                      0
 PORTHO     =  F
 HYBFUNC    =  F
 DFT+U      =  F
 DIAGCORRBL =  F
 *****************
 Output parameters
 *****************
 HAMILTON   =  F
 MULLIKEN   =  F
 HTRANSM    =  F
 ESTEP      =   1.000000000000000E-002
 DOSENERGY  =   0.000000000000000E+000
 EW1        =   -3.00000000000000     
 EW2        =    3.00000000000000     
 LDOS_BEG   =                      1
 LDOS_END   =                      0
 RTM_BEG    =                      1
 RTM_END    =                      0
 NCHANNELS  =                      0
 LEADDOS    =  F
 PRTHATOM   =                      1
 -------------------
 Initializing device
 -------------------
 ----------------------------------------------------------
 Analyzing cluster for the connection of the  Bethe Lattice
 ----------------------------------------------------------
 
 Atom type of lead 1: Au
 Atom type of lead 2: Au
 
    1   79  11.    9    1    9
    2   79  11.    9   10   18
    3   79  11.    9   19   27
    4   79  11.    9   28   36
    5   79  11.    9   37   45
    6   79  11.    9   46   54
    7   79  11.    9   55   63
    8   79  11.    9   64   72
    9   79  11.    9   73   81
   10   79  11.    9   82   90
 
  Center of charge:
   0.000000   0.000000   0.000000
 
                     5 nlead1
  Atoms in left electrode:                     5
   1  Au   0.000000   3.847482   6.380543
   2  Au  -3.847482   0.000000   6.380543
   3  Au   0.000000  -3.847482   6.380543
   4  Au   3.847482   0.000000   6.380543
   5  Au   0.000000   0.000000   2.641076
 
  Atoms in molecule:                     0
 
  Atoms in right electrode:                     5
   6  Au  -3.847482   0.000000  -6.380543
   7  Au   0.000000   3.847482  -6.380543
   8  Au   3.847482   0.000000  -6.380543
   9  Au   0.000000  -3.847482  -6.380543
  10  Au   0.000000   0.000000  -2.641076
 
 Plane 1
 with normal vector (  0.000000,  0.000000,  1.000000 )
 has    4 atoms:
    1    1   0.000000   3.847482   6.380543
    2    1  -3.847482   0.000000   6.380543
    3    1   0.000000  -3.847482   6.380543
    4    1   3.847482   0.000000   6.380543
 
 Plane 2
 with normal vector (  0.000000,  0.000000, -1.000000 )
 has    4 atoms:
    7    2   0.000000  -3.847482  -6.380543
    8    2   3.847482   0.000000  -6.380543
    9    2   0.000000   3.847482  -6.380543
   10    2  -3.847482   0.000000  -6.380543
 
 Finding lattice directions in electrode 1 ....
 Near-neighbor distance at electrode 1 =    2.83922396936177     
Found         12  lattice directions
  -0.70711  -0.70711   0.00000
   0.70711   0.70711   0.00000
   0.70711  -0.70711   0.00000
  -0.70711   0.70711   0.00000
   0.00000  -0.71710  -0.69697
   0.00000   0.71710   0.69697
   0.71710   0.00000  -0.69697
  -0.71710   0.00000   0.69697
   0.00000   0.71710  -0.69697
   0.00000  -0.71710   0.69697
  -0.71710   0.00000  -0.69697
   0.71710   0.00000   0.69697
 Finding lattice directions in electrode 2 ....
 Near-neighbor distance at electrode 2 =    2.83922396936177     
Found         12  lattice directions
   0.70711   0.70711   0.00000
  -0.70711  -0.70711   0.00000
   0.70711  -0.70711   0.00000
  -0.70711   0.70711   0.00000
   0.71710   0.00000   0.69697
  -0.71710   0.00000  -0.69697
   0.00000  -0.71710   0.69697
   0.00000   0.71710  -0.69697
  -0.71710   0.00000   0.69697
   0.71710   0.00000  -0.69697
   0.00000   0.71710   0.69697
   0.00000  -0.71710  -0.69697
 
 -----------------------------------------------------
 Inititalizing Bethe lattice for electrode No. 1
 -----------------------------------------------------
 
 Open file 
 /home/palacios/ANT.G/ANT.Gaussian-master/BLDAT/BL079.dat                       
                       to read Bethe lattice parameters.
 Reading Papacon                                            parameters.
 es        =  0.146295185820599     
 ep        =  0.776610014094897     
 edd       = -6.302445090503320E-003
 edt       = -6.302445090503320E-003
 sss       = -8.600517700907730E-002
 sps       =  7.098877310847083E-002
 pps       =  0.123200659022045     
 ppp       =  9.117642098700795E-003
 sds       = -4.585037855163573E-002
 pds       = -6.023972436070375E-002
 pdp       =  1.499521879992352E-002
 dds       = -5.043140437309775E-002
 ddp       =  2.832100076852634E-002
 ddd       = -3.813964562431813E-003
 S_sss     =  0.106646472228367     
 S_sps     = -2.548653040829821E-002
 S_pps     = -3.751533436747578E-002
 S_ppp     =  1.854454054083235E-002
 S_sds     =  1.131514415920851E-002
 S_pds     =  6.227056677507093E-002
 S_pdp     = -6.320607055759133E-003
 S_dds     =  2.301652146653353E-002
 S_ddp     = -2.803927782025642E-002
 S_ddd     =  8.424539213866888E-004
 Done.
 Setting Fermi level to zero for Lead                      1
 Searching boundaries [EMin, EMax] such that Int[EMin, EMax] DOS(E) =
                    18  ( Number of spin orbitals ).
 EMin=  -10.0000000000000        Charge=  1.673818838288099E-005
 EMax=   20.0000000000000        Charge=   17.9999859038993     
 Now searching for Fermi energy...
 Secant method:
 Bethe lattice Fermi energy =    2.70879997926752     
 
 -----------------------------------------------------
 Inititalizing Bethe lattice for electrode No. 2
 -----------------------------------------------------
 
 Open file 
 /home/palacios/ANT.G/ANT.Gaussian-master/BLDAT/BL079.dat                       
                       to read Bethe lattice parameters.
 Reading Papacon                                            parameters.
 es        =  0.146295185820599     
 ep        =  0.776610014094897     
 edd       = -6.302445090503320E-003
 edt       = -6.302445090503320E-003
 sss       = -8.600517700907730E-002
 sps       =  7.098877310847083E-002
 pps       =  0.123200659022045     
 ppp       =  9.117642098700795E-003
 sds       = -4.585037855163573E-002
 pds       = -6.023972436070375E-002
 pdp       =  1.499521879992352E-002
 dds       = -5.043140437309775E-002
 ddp       =  2.832100076852634E-002
 ddd       = -3.813964562431813E-003
 S_sss     =  0.106646472228367     
 S_sps     = -2.548653040829821E-002
 S_pps     = -3.751533436747578E-002
 S_ppp     =  1.854454054083235E-002
 S_sds     =  1.131514415920851E-002
 S_pds     =  6.227056677507093E-002
 S_pdp     = -6.320607055759133E-003
 S_dds     =  2.301652146653353E-002
 S_ddp     = -2.803927782025642E-002
 S_ddd     =  8.424539213866888E-004
 Done.
 Setting Fermi level to zero for Lead                      2
 Searching boundaries [EMin, EMax] such that Int[EMin, EMax] DOS(E) =
                    18  ( Number of spin orbitals ).
 EMin=  -10.0000000000000        Charge=  1.673818838288099E-005
 EMax=   20.0000000000000        Charge=   17.9999859038993     
 Now searching for Fermi energy...
 Secant method:
 Bethe lattice Fermi energy =    2.70879997926752     
 ---------------------------------------------------
  Details on device and contacting atoms -----------
 ---------------------------------------------------
 NEmbed(1) =                     0
 NEmbed(2) =                     0
 Number of electrons in neutral reduced device (NCDEl) =                    110
 First and last orbital in reduced device
 NCDAO1 =                      1
 NCDAO2 =                     90
 ---------------------------------------------------
 -------------------------------------------------------------------------------
 ------------
 Starting calculation with density matrix from file  
 P.Au4-Au-Au-Au4.dat                               
 -------------------------------------------------------------------------------
 ------------
 Tr[P*S] of initial guess =   110.000000876795     
 --------------------------------
 Defaulting to unpruned grid for atomic number  79.
 E= -348.129413565346    
 -------------------------------------------------------------------------
 Computing the density matrix at cycle:                     1
 -------------------------------------------------------------------------
 -----------------------
 Estimated Energy Bounds
 -----------------------
 EMin=  -94.8297996112743     
 EMax=   94.8297996112743     
 -----------------------
  Total DOS Point Check 
 -----------------------
 Checking energy bounds [EMin, EMax] such that ...
 ...Total Integrated Spectral Weight (TISW)= 180
TotCharge/Gaussian quadrature gives     3 177.60735
TotCharge/Gaussian quadrature gives     7 179.70591
TotCharge/Gaussian quadrature gives    15 180.02784
TotCharge/Gaussian quadrature gives    31 180.00003
TotCharge/Gaussian quadrature has converged after  31 steps. Error:   0.00008
TotCharge/Gaussian quadrature gives   179.99995
 EMin=        -94.830  EMax=         94.830  TISW=   179.99995 OK
 --------------------------------------------------
 MULLER method
 Integration of the density matrix on the complex plane has needed    8 points
 Integration of the density matrix on the complex plane has needed   16 points
 Integration of the density matrix on the complex plane has needed   16 points
 Integration of the density matrix on the complex plane has needed    8 points
 Integration of the density matrix on the complex plane has needed    8 points
 -----------------------------------------------
 Fermi energy=  -7.33449  +/-  0.00000
 
 Number of alpha electrons:   55.00000
 Number of beta electrons:    55.00000
 Total number of electrons:   110.00000
 -----------------------------------------------
 DIIS: error= 5.73D-02 at cycle   1 NSaved=   1.
 NSaved= 1 IEnMin= 1 EnMin= -348.129413565346     IErMin= 1 ErrMin= 5.73D-02
 ErrMax= 5.73D-02  0.00D+00 EMaxC= 1.00D-01 BMatC= 1.19D-01 BMatP= 1.19D-01
 IDIUse=3 WtCom= 4.27D-01 WtEn= 5.73D-01
 Coeff-Com:  0.100D+01
 Coeff-En:   0.100D+01
 Coeff:      0.100D+01
 RMSDP=1.66D-02 MaxDP=2.51D-01              OVMax= 0.00D+00

 Cycle   2  Pass 1  IDiag  1:
 E= -348.119567316382     Delta-E=        0.009846248964 Rises=F Damp=F
 -------------------------------------------------------------------------
[...]
 Total number of electrons:   110.00000
 -----------------------------------------------
 RMSDP=5.32D-04 MaxDP=3.17D-03 DE= 9.85D-03 OVMax= 0.00D+00

 Cycle   3  Pass 1  IDiag  1:
 E= -348.109946976865     Delta-E=        0.009620339517 Rises=F Damp=F
 -------------------------------------------------------------------------
 Computing the density matrix at cycle:                     3
 -------------------------------------------------------------------------
 MULLER method
 Integration of the density matrix on the complex plane has needed    8 points
 Integration of the density matrix on the complex plane has needed    8 points
 Integration of the density matrix on the complex plane has needed    8 points
 Integration of the density matrix on the complex plane has needed    8 points
 Integration of the density matrix on the complex plane has needed    8 points
 -----------------------------------------------
 Fermi energy=  -7.36371  +/-  0.00000
 
 Number of alpha electrons:   55.00000
 Number of beta electrons:    55.00000
 Total number of electrons:   110.00000
 -----------------------------------------------
 RMSDP=5.20D-04 MaxDP=3.09D-03 DE= 9.62D-03 OVMax= 0.00D+00

 Cycle   4  Pass 1  IDiag  1:
 E= -348.100547966917     Delta-E=        0.009399009948 Rises=F Damp=F
 -------------------------------------------------------------------------
 Computing the density matrix at cycle:                     4
 -------------------------------------------------------------------------
 MULLER method
 Integration of the density matrix on the complex plane has needed    8 points
 Integration of the density matrix on the complex plane has needed    8 points
 Integration of the density matrix on the complex plane has needed    8 points
 Integration of the density matrix on the complex plane has needed    8 points
 Integration of the density matrix on the complex plane has needed    8 points
 -----------------------------------------------
 Fermi energy=  -7.37781  +/-  0.00000
 
 Number of alpha electrons:   55.00000
 Number of beta electrons:    55.00000
 Total number of electrons:   110.00000
 -----------------------------------------------
 Pulay kick .............
 RMSDP=2.41D-02 MaxDP=1.38D-01 DE= 9.40D-03 OVMax= 0.00D+00

 Cycle   5  Pass 1  IDiag  1:
 E= -347.690869326011     Delta-E=        0.409678640906 Rises=F Damp=F
 -------------------------------------------------------------------------
 Computing the density matrix at cycle:                     5
 -------------------------------------------------------------------------
 MULLER method
 Integration of the density matrix on the complex plane has needed    8 points
 Integration of the density matrix on the complex plane has needed    8 points
 Integration of the density matrix on the complex plane has needed    8 points
 Integration of the density matrix on the complex plane has needed    8 points
 Integration of the density matrix on the complex plane has needed    8 points
 -----------------------------------------------
 Fermi energy=  -7.95120  +/-  0.00486
 
 Number of alpha electrons:   55.00002
 Number of beta electrons:    55.00002
 Total number of electrons:   110.00004
 -----------------------------------------------
 RMSDP=8.70D-06 MaxDP=2.04D-04 DE= 4.10D-01 OVMax= 0.00D+00

 Cycle   6  Pass 1  IDiag  1:
 E= -347.691164533463     Delta-E=       -0.000295207452 Rises=F Damp=F
 -------------------------------------------------------------------------
 Computing the density matrix at cycle:                     6
 -------------------------------------------------------------------------
 MULLER method
 Integration of the density matrix on the complex plane has needed   16 points
 Integration of the density matrix on the complex plane has needed   16 points
 Integration of the density matrix on the complex plane has needed    8 points
 Integration of the density matrix on the complex plane has needed   16 points
 Integration of the density matrix on the complex plane has needed   16 points
 -----------------------------------------------
 Fermi energy=  -7.94979  +/-  0.00000
 
 Number of alpha electrons:   55.00000
 Number of beta electrons:    55.00000
 Total number of electrons:   110.00000
 -----------------------------------------------
 RMSDP=8.40D-06 MaxDP=1.94D-04 DE=-2.95D-04 OVMax= 0.00D+00

 Cycle   7  Pass 1  IDiag  1:
 E= -347.691450720403     Delta-E=       -0.000286186941 Rises=F Damp=F
 -------------------------------------------------------------------------
 Computing the density matrix at cycle:                     7
 -------------------------------------------------------------------------
 MULLER method
 Integration of the density matrix on the complex plane has needed   16 points
 Integration of the density matrix on the complex plane has needed   16 points
 Integration of the density matrix on the complex plane has needed    8 points
 Integration of the density matrix on the complex plane has needed   16 points
 Integration of the density matrix on the complex plane has needed   16 points
 -----------------------------------------------
 Fermi energy=  -7.94842  +/-  0.00000
 
 Number of alpha electrons:   55.00000
 Number of beta electrons:    55.00000
 Total number of electrons:   110.00000
 -----------------------------------------------
 RMSDP=8.11D-06 MaxDP=1.84D-04 DE=-2.86D-04 OVMax= 0.00D+00

 Cycle   8  Pass 1  IDiag  1:
 E= -347.691728359614     Delta-E=       -0.000277639210 Rises=F Damp=F
 -------------------------------------------------------------------------
 Computing the density matrix at cycle:                     8
 -------------------------------------------------------------------------
 MULLER method
 Integration of the density matrix on the complex plane has needed   16 points
 Integration of the density matrix on the complex plane has needed   16 points
 Integration of the density matrix on the complex plane has needed    8 points
 Integration of the density matrix on the complex plane has needed   16 points
 Integration of the density matrix on the complex plane has needed   16 points
 -----------------------------------------------
 Fermi energy=  -7.94712  +/-  0.00000
 
 Number of alpha electrons:   55.00000
 Number of beta electrons:    55.00000
 Total number of electrons:   110.00000
 -----------------------------------------------
 RMSDP=7.83D-06 MaxDP=1.75D-04 DE=-2.78D-04 OVMax= 0.00D+00

 Cycle   9  Pass 1  IDiag  1:
 E= -347.691997714491     Delta-E=       -0.000269354877 Rises=F Damp=F
 -------------------------------------------------------------------------
 Computing the density matrix at cycle:                     9
 -------------------------------------------------------------------------
 MULLER method
 Integration of the density matrix on the complex plane has needed   16 points
 Integration of the density matrix on the complex plane has needed   16 points
 Integration of the density matrix on the complex plane has needed    8 points
 Integration of the density matrix on the complex plane has needed   16 points
 Integration of the density matrix on the complex plane has needed   16 points
 -----------------------------------------------
 Fermi energy=  -7.94586  +/-  0.00000
 
 Number of alpha electrons:   55.00000
 Number of beta electrons:    55.00000
 Total number of electrons:   110.00000
 -----------------------------------------------
 Pulay kick .............
 RMSDP=2.58D-04 MaxDP=4.00D-03 DE=-2.69D-04 OVMax= 0.00D+00

 Cycle  10  Pass 1  IDiag  1:
 E= -347.701105518135     Delta-E=       -0.009107803644 Rises=F Damp=F
 -------------------------------------------------------------------------
 Computing the density matrix at cycle:                    10
 -------------------------------------------------------------------------
 MULLER method
 Integration of the density matrix on the complex plane has needed    8 points
 Integration of the density matrix on the complex plane has needed    8 points
 Integration of the density matrix on the complex plane has needed    8 points
 Integration of the density matrix on the complex plane has needed    8 points
 Integration of the density matrix on the complex plane has needed    8 points
 -----------------------------------------------
 Fermi energy=  -7.91256  +/-  0.00000
 
 Number of alpha electrons:   55.00000
 Number of beta electrons:    55.00000
 Total number of electrons:   110.00000
 -----------------------------------------------
 RMSDP=1.51D-07 MaxDP=1.35D-06 DE=-9.11D-03 OVMax= 0.00D+00

 SCF Done:  E(RS-VWN) =  -347.701105518     A.U. after   10 cycles
            NFock= 10  Conv=0.15D-06     -V/T= 2.4041
 KE= 2.476308314693D+02 PE=-2.219470905055D+03 EE= 9.411305120238D+02
 -------------------------------------------------------------------------
 Computing the density matrix at cycle:                  1000
 -------------------------------------------------------------------------
 MULLER method
 Integration of the density matrix on the complex plane has needed    8 points
 Integration of the density matrix on the complex plane has needed    8 points
 Integration of the density matrix on the complex plane has needed    8 points
 Integration of the density matrix on the complex plane has needed    8 points
 Integration of the density matrix on the complex plane has needed    8 points
 -----------------------------------------------
 Fermi energy=  -7.91256  +/-  0.00000
 
 Number of alpha electrons:   55.00000
 Number of beta electrons:    55.00000
 Total number of electrons:   110.00000
 -----------------------------------------------
 
 ****************************************** 
 *                                        * 
 *        ANT.G09 final analysis          * 
 *                                        * 
 ****************************************** 
 
 -------------------------------------
 ---  Self-consistent Hamiltonian  ---
 -------------------------------------
 ---------
 Left lead
 ---------
 Atom:   1   -9.618967
 Atom:   2   -9.618967
 Atom:   3   -9.618967
 Atom:   4   -9.618967
 Atom:   5   -9.704531
 ----------
 Right lead
 ----------
 Atom:   6   -9.704531
 Atom:   7   -9.618967
 Atom:   8   -9.618967
 Atom:   9   -9.618967
 Atom:  10   -9.618967
 
 --------------------------------
 --- Calculating Transmission ---
 ---  (and DOS if required)   ---
 --------------------------------
 
 MULLER method
 Integration of the density matrix on the complex plane has needed    8 points
 Integration of the density matrix on the complex plane has needed    8 points
 Integration of the density matrix on the complex plane has needed    8 points
 Integration of the density matrix on the complex plane has needed    8 points
 Integration of the density matrix on the complex plane has needed    8 points
 -----------------------------------------------
 Fermi energy=  -7.91256  +/-  0.00000
 
 Number of alpha electrons:   55.00000
 Number of beta electrons:    55.00000
 Total number of electrons:   110.00000
 -----------------------------------------------
 -------------------------------------
 ---  Mulliken population analysis ---
 -------------------------------------
 ----------------------
 Charges in electrode 1
 ----------------------
 Atom:   1  El.dens: 11.0842
 Atom:   2  El.dens: 11.0842
 Atom:   3  El.dens: 11.0842
 Atom:   4  El.dens: 11.0842
 Atom:   5  El.dens: 10.6634
 ---------------------------------------------------------
 Total num. of electrons in electrode 1:   55.0000000000000     
 ---------------------------------------------------------
 ----------------------------------------------------
 Total num. of electrons in molecule:  0.000000000000000E+000
 ----------------------------------------------------
 ----------------------
 Charges in electrode 2
 ----------------------
 Atom:   6  El.dens: 10.6634
 Atom:   7  El.dens: 11.0842
 Atom:   8  El.dens: 11.0842
 Atom:   9  El.dens: 11.0842
 Atom:  10  El.dens: 11.0842
 ---------------------------------------------------------
 Total num. of electrons in electrode 2:   55.0000000000000     
 ---------------------------------------------------------
  ----------------- End of ANT.G09 ------------------- 
 Leave Link  502 at Fri Jul  8 10:29:13 2022, MaxMem=    32768000 cpu:        75.9
 (Enter /home/palacios/Gaussian09/intel/v.D01/g09/l601.exe)
 Copying SCF densities to generalized density rwf, IOpCl= 0 IROHF=0.

 **********************************************************************

            Population analysis using the SCF density.

 **********************************************************************

 Orbital symmetries:
       Occupied  (A1G) (EU) (EU) (A2U) (B2G) (B1U) (EG) (EG) (B1G)
                 (A1G) (A2U) (B2U) (B2G) (EU) (EU) (EG) (EG) (B1U)
                 (A1G) (A2U) (EU) (EU) (A1G) (EG) (EG) (EU) (EU)
                 (EG) (EG) (B2G) (EU) (EU) (EG) (EG) (B1U) (B1G)
                 (B2U) (A2G) (A1U) (B1G) (B2U) (EU) (EU) (A2U)
                 (B1G) (B2U) (A2G) (A1U) (EG) (EG) (A2U) (A1G)
                 (EU) (EU) (A1G)
       Virtual   (EG) (EG) (B1G) (B2U) (A2U) (B2G) (EU) (EU) (B1U)
                 (A1G) (A2U) (EG) (EG) (EU) (EU) (EG) (EG) (B1G)
                 (B2U) (EU) (EU) (EG) (EG) (A1G) (A2G) (A1U) (EU)
                 (EU) (A2U) (B1G) (EG) (EG) (B2U) (A1G) (A2U)
 The electronic state is 1-A1G.
 Alpha  occ. eigenvalues --   -0.42993  -0.41955  -0.41955  -0.41469  -0.41320
 Alpha  occ. eigenvalues --   -0.41284  -0.40958  -0.40958  -0.39727  -0.39567
 Alpha  occ. eigenvalues --   -0.39484  -0.39462  -0.39428  -0.39390  -0.39390
 Alpha  occ. eigenvalues --   -0.39354  -0.39354  -0.39343  -0.39284  -0.39165
 Alpha  occ. eigenvalues --   -0.37588  -0.37588  -0.37537  -0.37501  -0.37501
 Alpha  occ. eigenvalues --   -0.36834  -0.36834  -0.36688  -0.36688  -0.36426
 Alpha  occ. eigenvalues --   -0.36086  -0.36086  -0.36071  -0.36071  -0.36068
 Alpha  occ. eigenvalues --   -0.36029  -0.36023  -0.35843  -0.35843  -0.35230
 Alpha  occ. eigenvalues --   -0.35222  -0.34997  -0.34997  -0.34445  -0.34346
 Alpha  occ. eigenvalues --   -0.34144  -0.34031  -0.34031  -0.33609  -0.33609
 Alpha  occ. eigenvalues --   -0.30092  -0.29467  -0.20526  -0.20526  -0.20004
 Alpha virt. eigenvalues --   -0.19976  -0.19976  -0.12590  -0.12436  -0.11765
 Alpha virt. eigenvalues --   -0.06143  -0.05921  -0.05921  -0.05775  -0.05159
 Alpha virt. eigenvalues --   -0.04942  -0.02576  -0.02576  -0.00669  -0.00669
 Alpha virt. eigenvalues --    0.00162   0.00162   0.02754   0.05311   0.06186
 Alpha virt. eigenvalues --    0.06186   0.09132   0.09132   0.12913   0.14400
 Alpha virt. eigenvalues --    0.15053   0.33767   0.33767   0.37175   0.61702
 Alpha virt. eigenvalues --    0.68162   0.68162   0.68293   0.92904   2.81419
          Condensed to atoms (all electrons):
               1          2          3          4          5          6
     1  Au  11.925952  -0.313118  -0.015915  -0.313118  -0.102723  -0.079934
     2  Au  -0.313118  11.925952  -0.313118  -0.015915  -0.102723  -0.079934
     3  Au  -0.015915  -0.313118  11.925952  -0.313118  -0.102723  -0.079934
     4  Au  -0.313118  -0.015915  -0.313118  11.925952  -0.102723  -0.079934
     5  Au  -0.102723  -0.102723  -0.102723  -0.102723  11.932035  -0.537984
     6  Au  -0.079934  -0.079934  -0.079934  -0.079934  -0.537984  11.932035
     7  Au  -0.003639  -0.000465  -0.012430  -0.000465  -0.079934  -0.102723
     8  Au  -0.000465  -0.003639  -0.000465  -0.012430  -0.079934  -0.102723
     9  Au  -0.012430  -0.000465  -0.003639  -0.000465  -0.079934  -0.102723
    10  Au  -0.000465  -0.012430  -0.000465  -0.003639  -0.079934  -0.102723
               7          8          9         10
     1  Au  -0.003639  -0.000465  -0.012430  -0.000465
     2  Au  -0.000465  -0.003639  -0.000465  -0.012430
     3  Au  -0.012430  -0.000465  -0.003639  -0.000465
     4  Au  -0.000465  -0.012430  -0.000465  -0.003639
     5  Au  -0.079934  -0.079934  -0.079934  -0.079934
     6  Au  -0.102723  -0.102723  -0.102723  -0.102723
     7  Au  11.925952  -0.313118  -0.015915  -0.313118
     8  Au  -0.313118  11.925952  -0.313118  -0.015915
     9  Au  -0.015915  -0.313118  11.925952  -0.313118
    10  Au  -0.313118  -0.015915  -0.313118  11.925952
 Mulliken charges:
               1
     1  Au  -0.084144
     2  Au  -0.084144
     3  Au  -0.084144
     4  Au  -0.084144
     5  Au   0.336576
     6  Au   0.336576
     7  Au  -0.084144
     8  Au  -0.084144
     9  Au  -0.084144
    10  Au  -0.084144
 Sum of Mulliken charges =   0.00000
 Mulliken charges with hydrogens summed into heavy atoms:
               1
     1  Au  -0.084144
     2  Au  -0.084144
     3  Au  -0.084144
     4  Au  -0.084144
     5  Au   0.336576
     6  Au   0.336576
     7  Au  -0.084144
     8  Au  -0.084144
     9  Au  -0.084144
    10  Au  -0.084144
 Electronic spatial extent (au):  <R**2>=           5546.4807
 Charge=              0.0000 electrons
 Dipole moment (field-independent basis, Debye):
    X=              0.0000    Y=              0.0000    Z=              0.0000  Tot=              0.0000
 Quadrupole moment (field-independent basis, Debye-Ang):
   XX=           -223.5299   YY=           -223.5299   ZZ=           -235.8850
   XY=              0.0000   XZ=              0.0000   YZ=              0.0000
 Traceless Quadrupole moment (field-independent basis, Debye-Ang):
   XX=              4.1184   YY=              4.1184   ZZ=             -8.2367
   XY=              0.0000   XZ=              0.0000   YZ=              0.0000
 Octapole moment (field-independent basis, Debye-Ang**2):
  XXX=              0.0000  YYY=              0.0000  ZZZ=              0.0000  XYY=              0.0000
  XXY=              0.0000  XXZ=              0.0000  XZZ=              0.0000  YZZ=              0.0000
  YYZ=              0.0000  XYZ=              0.0000
 Hexadecapole moment (field-independent basis, Debye-Ang**3):
 XXXX=          -2961.4400 YYYY=          -2961.4400 ZZZZ=         -13678.6509 XXXY=              0.0000
 XXXZ=              0.0000 YYYX=              0.0000 YYYZ=              0.0000 ZZZX=              0.0000
 ZZZY=              0.0000 XXYY=           -904.9366 XXZZ=          -2899.8259 YYZZ=          -2899.8259
 XXYZ=              0.0000 YYXZ=              0.0000 ZZXY=              0.0000
 N-N= 6.830084560437D+02 E-N=-2.219470896944D+03  KE= 2.476308314693D+02
 Symmetry AG   KE= 3.928150598589D+01
 Symmetry B1G  KE= 2.494245149170D+01
 Symmetry B2G  KE= 3.009545958003D+01
 Symmetry B3G  KE= 3.009545958003D+01
 Symmetry AU   KE= 2.459431519670D+01
 Symmetry B1U  KE= 3.977794181447D+01
 Symmetry B2U  KE= 2.942184891024D+01
 Symmetry B3U  KE= 2.942184891024D+01
 No NMR shielding tensors so no spin-rotation constants.
 Leave Link  601 at Fri Jul  8 10:29:16 2022, MaxMem=    32768000 cpu:         0.8
 (Enter /home/palacios/Gaussian09/intel/v.D01/g09/l9999.exe)
 1\1\GINC-COMPUTE-1-0\SP\RSVWN\Gen\Au10\PALACIOS\08-Jul-2022\0\\#p lsda
 /gen pseudo=read gfinput Scf=(dsymm,conver=6,nodamp)\\Au4-Au-Au-Au4\\0
 ,1\Au,0,2.036,0.,3.376438\Au,0,0.,2.036,3.376438\Au,0,-2.036,0.,3.3764
 38\Au,0,0.,-2.036,3.376438\Au,0,0.,0.,1.397597\Au,0,0.,0.,-1.397597\Au
 ,0,-2.036,0.,-3.376438\Au,0,0.,-2.036,-3.376438\Au,0,2.036,0.,-3.37643
 8\Au,0,0.,2.036,-3.376438\\Version=AS64L-G09RevD.01\State=1-A1G\HF=-34
 7.7011055\RMSD=1.508e-07\Dipole=0.,0.,0.\Quadrupole=3.0618949,3.061894
 9,-6.1237898,0.,0.,0.\PG=D04H [C4(Au1.Au1),2SGV(Au4)]\\@


 THE TRULY SUCCESSFUL PERFORMANCE OF RESEARCHES IN
 INORGANIC CHEMISTRY IS POSSIBLE ONLY TO ONE WHO IS NOT
 ONLY A THEORETICAL CHEMIST, BUT ALSO AN ACCOMPLISHED
 ANALYST AND, MOREOVER, NOT MERELY A PRACTICALLY TRAINED,
 MECHANICAL WORKER, BUT A THINKING CREATIVE ARTIST.
   --  CLEMENS WINKLER, BER. 33, 1697(1900)
 Job cpu time:       0 days  0 hours  1 minutes 21.7 seconds.
 File lengths (MBytes):  RWF=      5 Int=      0 D2E=      0 Chk=      1 Scr=      1
 Normal termination of Gaussian 09 at Fri Jul  8 10:29:19 2022.
