 Entering Gaussian System, Link 0=g09
 Input=Au9-Au4-Au-Au4-Au9.gjf
 Output=Au9-Au4-Au-Au4-Au9.log
 Initial command:
 /home/palacios/gaussian/g09/l1.exe "/home/palacios/scratch/Gau-26788.inp" -scrdir="/home/palacios/scratch/"
 Entering Link 1 = /home/palacios/gaussian/g09/l1.exe PID=     26790.
  
 Copyright (c) 1988,1990,1992,1993,1995,1998,2003,2009,2013,
            Gaussian, Inc.  All Rights Reserved.
  
 This is part of the Gaussian(R) 09 program.  It is based on
 the Gaussian(R) 03 system (copyright 2003, Gaussian, Inc.),
 the Gaussian(R) 98 system (copyright 1998, Gaussian, Inc.),
 the Gaussian(R) 94 system (copyright 1995, Gaussian, Inc.),
 the Gaussian 92(TM) system (copyright 1992, Gaussian, Inc.),
 the Gaussian 90(TM) system (copyright 1990, Gaussian, Inc.),
 the Gaussian 88(TM) system (copyright 1988, Gaussian, Inc.),
 the Gaussian 86(TM) system (copyright 1986, Carnegie Mellon
 University), and the Gaussian 82(TM) system (copyright 1983,
 Carnegie Mellon University). Gaussian is a federally registered
 trademark of Gaussian, Inc.
  
 This software contains proprietary and confidential information,
 including trade secrets, belonging to Gaussian, Inc.
  
 This software is provided under written license and may be
 used, copied, transmitted, or stored only in accord with that
 written license.
  
 The following legend is applicable only to US Government
 contracts under FAR:
  
                    RESTRICTED RIGHTS LEGEND
  
 Use, reproduction and disclosure by the US Government is
 subject to restrictions as set forth in subparagraphs (a)
 and (c) of the Commercial Computer Software - Restricted
 Rights clause in FAR 52.227-19.
  
 Gaussian, Inc.
 340 Quinnipiac St., Bldg. 40, Wallingford CT 06492
  
  
 ---------------------------------------------------------------
 Warning -- This program may not be used in any manner that
 competes with the business of Gaussian, Inc. or will provide
 assistance to any competitor of Gaussian, Inc.  The licensee
 of this program is prohibited from giving any competitor of
 Gaussian, Inc. access to this program.  By using this program,
 the user acknowledges that Gaussian, Inc. is engaged in the
 business of creating and licensing software in the field of
 computational chemistry and represents and warrants to the
 licensee that it is not a competitor of Gaussian, Inc. and that
 it will not use this program in any manner prohibited above.
 ---------------------------------------------------------------
  

 Cite this work as:
 Gaussian 09, Revision D.01,
 M. J. Frisch, G. W. Trucks, H. B. Schlegel, G. E. Scuseria, 
 M. A. Robb, J. R. Cheeseman, G. Scalmani, V. Barone, B. Mennucci, 
 G. A. Petersson, H. Nakatsuji, M. Caricato, X. Li, H. P. Hratchian, 
 A. F. Izmaylov, J. Bloino, G. Zheng, J. L. Sonnenberg, M. Hada, 
 M. Ehara, K. Toyota, R. Fukuda, J. Hasegawa, M. Ishida, T. Nakajima, 
 Y. Honda, O. Kitao, H. Nakai, T. Vreven, J. A. Montgomery, Jr., 
 J. E. Peralta, F. Ogliaro, M. Bearpark, J. J. Heyd, E. Brothers, 
 K. N. Kudin, V. N. Staroverov, T. Keith, R. Kobayashi, J. Normand, 
 K. Raghavachari, A. Rendell, J. C. Burant, S. S. Iyengar, J. Tomasi, 
 M. Cossi, N. Rega, J. M. Millam, M. Klene, J. E. Knox, J. B. Cross, 
 V. Bakken, C. Adamo, J. Jaramillo, R. Gomperts, R. E. Stratmann, 
 O. Yazyev, A. J. Austin, R. Cammi, C. Pomelli, J. W. Ochterski, 
 R. L. Martin, K. Morokuma, V. G. Zakrzewski, G. A. Voth, 
 P. Salvador, J. J. Dannenberg, S. Dapprich, A. D. Daniels, 
 O. Farkas, J. B. Foresman, J. V. Ortiz, J. Cioslowski, 
 and D. J. Fox, Gaussian, Inc., Wallingford CT, 2013.
 
 ******************************************
 Gaussian 09:  ES64L-G09RevD.01 24-Apr-2013
                27-Mar-2019 
 ******************************************
 %mem=1gb
 %NProcShared=4
 Will use up to    4 processors via shared memory.
 %Subst L101 ../bin
 %Subst L502 ../bin
 ----------------------------------------------------------------------
 #p lsda/gen pseudo=read pop=reg Scf=(conver=5,maxcycle=100,dsymm) nosy
 mm
 ----------------------------------------------------------------------
 1/38=1/1;
 2/12=2,15=1,17=6,18=5,40=1/2;
 3/5=7,11=2,16=1,17=8,25=1,30=1,74=205/1,2,3;
 4//1;
 5/5=2,6=5,7=100,17=200,38=5/2;
 6/28=1/1;
 99/5=1,9=1/99;
 Leave Link    1 at Wed Mar 27 15:56:30 2019, MaxMem=   134217728 cpu:         0.2
 (Enter ../bin/l101.exe)
 ------------------
 Au9-Au4-Au-Au4-Au9
 ------------------
 Symbolic Z-matrix:
 Charge =  1 Multiplicity = 1
 Au                    0.        0.        7. 
 Au                   -2.        2.        7. 
 Au                    2.        2.        7. 
 Au                   -2.       -2.        7. 
 Au                    2.       -2.        7. 
 Au                   -4.        0.        7. 
 Au                    0.        4.        7. 
 Au                    4.        0.        7. 
 Au                    0.       -4.        7. 
 Au                    0.        2.        5. 
 Au                   -2.        0.        5. 
 Au                    0.       -2.        5. 
 Au                    2.        0.        5. 
 Au                    0.        0.        2.5 
 Au                    0.        2.        0. 
 Au                   -2.        0.        0. 
 Au                    0.       -2.        0. 
 Au                    2.        0.        0. 
 Au                    0.        0.       -2. 
 Au                   -2.        2.       -2. 
 Au                    2.        2.       -2. 
 Au                   -2.       -2.       -2. 
 Au                    2.       -2.       -2. 
 Au                   -4.        0.       -2. 
 Au                    0.        4.       -2. 
 Au                    4.        0.       -2. 
 Au                    0.       -4.       -2. 
 
 NAtoms=     27 NQM=       27 NQMF=       0 NMMI=      0 NMMIF=      0
                NMic=       0 NMicF=      0.
                    Isotopes and Nuclear Properties:
 (Nuclear quadrupole moments (NQMom) in fm**2, nuclear magnetic moments (NMagM)
  in nuclear magnetons)

  Atom         1           2           3           4           5           6           7           8           9          10
 IAtWgt=         197         197         197         197         197         197         197         197         197         197
 AtmWgt= 196.9666000 196.9666000 196.9666000 196.9666000 196.9666000 196.9666000 196.9666000 196.9666000 196.9666000 196.9666000
 NucSpn=           3           3           3           3           3           3           3           3           3           3
 AtZEff=   0.0000000   0.0000000   0.0000000   0.0000000   0.0000000   0.0000000   0.0000000   0.0000000   0.0000000   0.0000000
 NQMom=   54.7000000  54.7000000  54.7000000  54.7000000  54.7000000  54.7000000  54.7000000  54.7000000  54.7000000  54.7000000
 NMagM=    0.1481590   0.1481590   0.1481590   0.1481590   0.1481590   0.1481590   0.1481590   0.1481590   0.1481590   0.1481590
 AtZNuc=  79.0000000  79.0000000  79.0000000  79.0000000  79.0000000  79.0000000  79.0000000  79.0000000  79.0000000  79.0000000

  Atom        11          12          13          14          15          16          17          18          19          20
 IAtWgt=         197         197         197         197         197         197         197         197         197         197
 AtmWgt= 196.9666000 196.9666000 196.9666000 196.9666000 196.9666000 196.9666000 196.9666000 196.9666000 196.9666000 196.9666000
 NucSpn=           3           3           3           3           3           3           3           3           3           3
 AtZEff=   0.0000000   0.0000000   0.0000000   0.0000000   0.0000000   0.0000000   0.0000000   0.0000000   0.0000000   0.0000000
 NQMom=   54.7000000  54.7000000  54.7000000  54.7000000  54.7000000  54.7000000  54.7000000  54.7000000  54.7000000  54.7000000
 NMagM=    0.1481590   0.1481590   0.1481590   0.1481590   0.1481590   0.1481590   0.1481590   0.1481590   0.1481590   0.1481590
 AtZNuc=  79.0000000  79.0000000  79.0000000  79.0000000  79.0000000  79.0000000  79.0000000  79.0000000  79.0000000  79.0000000

  Atom        21          22          23          24          25          26          27
 IAtWgt=         197         197         197         197         197         197         197
 AtmWgt= 196.9666000 196.9666000 196.9666000 196.9666000 196.9666000 196.9666000 196.9666000
 NucSpn=           3           3           3           3           3           3           3
 AtZEff=   0.0000000   0.0000000   0.0000000   0.0000000   0.0000000   0.0000000   0.0000000
 NQMom=   54.7000000  54.7000000  54.7000000  54.7000000  54.7000000  54.7000000  54.7000000
 NMagM=    0.1481590   0.1481590   0.1481590   0.1481590   0.1481590   0.1481590   0.1481590
 AtZNuc=  79.0000000  79.0000000  79.0000000  79.0000000  79.0000000  79.0000000  79.0000000
 Leave Link  101 at Wed Mar 27 15:56:30 2019, MaxMem=   134217728 cpu:         0.7
 (Enter /home/palacios/gaussian/g09/l202.exe)
                          Input orientation:                          
 ---------------------------------------------------------------------
 Center     Atomic      Atomic             Coordinates (Angstroms)
 Number     Number       Type             X           Y           Z
 ---------------------------------------------------------------------
      1         79           0        0.000000    0.000000    7.000000
      2         79           0       -2.000000    2.000000    7.000000
      3         79           0        2.000000    2.000000    7.000000
      4         79           0       -2.000000   -2.000000    7.000000
      5         79           0        2.000000   -2.000000    7.000000
      6         79           0       -4.000000    0.000000    7.000000
      7         79           0        0.000000    4.000000    7.000000
      8         79           0        4.000000    0.000000    7.000000
      9         79           0        0.000000   -4.000000    7.000000
     10         79           0        0.000000    2.000000    5.000000
     11         79           0       -2.000000    0.000000    5.000000
     12         79           0        0.000000   -2.000000    5.000000
     13         79           0        2.000000    0.000000    5.000000
     14         79           0        0.000000    0.000000    2.500000
     15         79           0        0.000000    2.000000    0.000000
     16         79           0       -2.000000    0.000000    0.000000
     17         79           0        0.000000   -2.000000    0.000000
     18         79           0        2.000000    0.000000    0.000000
     19         79           0        0.000000    0.000000   -2.000000
     20         79           0       -2.000000    2.000000   -2.000000
     21         79           0        2.000000    2.000000   -2.000000
     22         79           0       -2.000000   -2.000000   -2.000000
     23         79           0        2.000000   -2.000000   -2.000000
     24         79           0       -4.000000    0.000000   -2.000000
     25         79           0        0.000000    4.000000   -2.000000
     26         79           0        4.000000    0.000000   -2.000000
     27         79           0        0.000000   -4.000000   -2.000000
 ---------------------------------------------------------------------
                    Distance matrix (angstroms):
                    1          2          3          4          5
     1  Au   0.000000
     2  Au   2.828427   0.000000
     3  Au   2.828427   4.000000   0.000000
     4  Au   2.828427   4.000000   5.656854   0.000000
     5  Au   2.828427   5.656854   4.000000   4.000000   0.000000
     6  Au   4.000000   2.828427   6.324555   2.828427   6.324555
     7  Au   4.000000   2.828427   2.828427   6.324555   6.324555
     8  Au   4.000000   6.324555   2.828427   6.324555   2.828427
     9  Au   4.000000   6.324555   6.324555   2.828427   2.828427
    10  Au   2.828427   2.828427   2.828427   4.898979   4.898979
    11  Au   2.828427   2.828427   4.898979   2.828427   4.898979
    12  Au   2.828427   4.898979   4.898979   2.828427   2.828427
    13  Au   2.828427   4.898979   2.828427   4.898979   2.828427
    14  Au   4.500000   5.315073   5.315073   5.315073   5.315073
    15  Au   7.280110   7.280110   7.280110   8.306624   8.306624
    16  Au   7.280110   7.280110   8.306624   7.280110   8.306624
    17  Au   7.280110   8.306624   8.306624   7.280110   7.280110
    18  Au   7.280110   8.306624   7.280110   8.306624   7.280110
    19  Au   9.000000   9.433981   9.433981   9.433981   9.433981
    20  Au   9.433981   9.000000   9.848858   9.848858  10.630146
    21  Au   9.433981   9.848858   9.000000  10.630146   9.848858
    22  Au   9.433981   9.848858  10.630146   9.000000   9.848858
    23  Au   9.433981  10.630146   9.848858   9.848858   9.000000
    24  Au   9.848858   9.433981  11.000000   9.433981  11.000000
    25  Au   9.848858   9.433981   9.433981  11.000000  11.000000
    26  Au   9.848858  11.000000   9.433981  11.000000   9.433981
    27  Au   9.848858  11.000000  11.000000   9.433981   9.433981
                    6          7          8          9         10
     6  Au   0.000000
     7  Au   5.656854   0.000000
     8  Au   8.000000   5.656854   0.000000
     9  Au   5.656854   8.000000   5.656854   0.000000
    10  Au   4.898979   2.828427   4.898979   6.324555   0.000000
    11  Au   2.828427   4.898979   6.324555   4.898979   2.828427
    12  Au   4.898979   6.324555   4.898979   2.828427   4.000000
    13  Au   6.324555   4.898979   2.828427   4.898979   2.828427
    14  Au   6.020797   6.020797   6.020797   6.020797   3.201562
    15  Au   8.306624   7.280110   8.306624   9.219544   5.000000
    16  Au   7.280110   8.306624   9.219544   8.306624   5.744563
    17  Au   8.306624   9.219544   8.306624   7.280110   6.403124
    18  Au   9.219544   8.306624   7.280110   8.306624   5.744563
    19  Au   9.848858   9.848858   9.848858   9.848858   7.280110
    20  Au   9.433981   9.433981  11.000000  11.000000   7.280110
    21  Au  11.000000   9.433981   9.433981  11.000000   7.280110
    22  Au   9.433981  11.000000  11.000000   9.433981   8.306624
    23  Au  11.000000  11.000000   9.433981   9.433981   8.306624
    24  Au   9.000000  10.630146  12.041595  10.630146   8.306624
    25  Au  10.630146   9.000000  10.630146  12.041595   7.280110
    26  Au  12.041595  10.630146   9.000000  10.630146   8.306624
    27  Au  10.630146  12.041595  10.630146   9.000000   9.219544
                   11         12         13         14         15
    11  Au   0.000000
    12  Au   2.828427   0.000000
    13  Au   4.000000   2.828427   0.000000
    14  Au   3.201562   3.201562   3.201562   0.000000
    15  Au   5.744563   6.403124   5.744563   3.201562   0.000000
    16  Au   5.000000   5.744563   6.403124   3.201562   2.828427
    17  Au   5.744563   5.000000   5.744563   3.201562   4.000000
    18  Au   6.403124   5.744563   5.000000   3.201562   2.828427
    19  Au   7.280110   7.280110   7.280110   4.500000   2.828427
    20  Au   7.280110   8.306624   8.306624   5.315073   2.828427
    21  Au   8.306624   8.306624   7.280110   5.315073   2.828427
    22  Au   7.280110   7.280110   8.306624   5.315073   4.898979
    23  Au   8.306624   7.280110   7.280110   5.315073   4.898979
    24  Au   7.280110   8.306624   9.219544   6.020797   4.898979
    25  Au   8.306624   9.219544   8.306624   6.020797   2.828427
    26  Au   9.219544   8.306624   7.280110   6.020797   4.898979
    27  Au   8.306624   7.280110   8.306624   6.020797   6.324555
                   16         17         18         19         20
    16  Au   0.000000
    17  Au   2.828427   0.000000
    18  Au   4.000000   2.828427   0.000000
    19  Au   2.828427   2.828427   2.828427   0.000000
    20  Au   2.828427   4.898979   4.898979   2.828427   0.000000
    21  Au   4.898979   4.898979   2.828427   2.828427   4.000000
    22  Au   2.828427   2.828427   4.898979   2.828427   4.000000
    23  Au   4.898979   2.828427   2.828427   2.828427   5.656854
    24  Au   2.828427   4.898979   6.324555   4.000000   2.828427
    25  Au   4.898979   6.324555   4.898979   4.000000   2.828427
    26  Au   6.324555   4.898979   2.828427   4.000000   6.324555
    27  Au   4.898979   2.828427   4.898979   4.000000   6.324555
                   21         22         23         24         25
    21  Au   0.000000
    22  Au   5.656854   0.000000
    23  Au   4.000000   4.000000   0.000000
    24  Au   6.324555   2.828427   6.324555   0.000000
    25  Au   2.828427   6.324555   6.324555   5.656854   0.000000
    26  Au   2.828427   6.324555   2.828427   8.000000   5.656854
    27  Au   6.324555   2.828427   2.828427   5.656854   8.000000
                   26         27
    26  Au   0.000000
    27  Au   5.656854   0.000000
 Symmetry turned off by external request.
 Stoichiometry    Au27(1+)
 Framework group  D4H[O(Au),C4(Au.Au),2SGV(Au8),2SGD(Au4)]
 Deg. of freedom     7
 Full point group                 D4H     NOp  16
 Rotational constants (GHZ):      0.0114545      0.0048733      0.0048733
 Leave Link  202 at Wed Mar 27 15:56:30 2019, MaxMem=   134217728 cpu:         0.1
 (Enter /home/palacios/gaussian/g09/l301.exe)
 General basis read from cards:  (5D, 7F)
 Centers:       1      2      3      4      5      6      7      8      9     10
 Centers:      11     12     13     15     16     17     18     19     20     21
 Centers:      22     23     24     25     26     27
 S 3 1.00
     Exponent=  4.4090000000D-01 Coefficients= -7.4780000000D-01
     Exponent=  2.6260000000D-01 Coefficients=  8.1760000000D-01
     Exponent=  6.1700000000D-02 Coefficients=  8.1130000000D-01
 P 3 1.00
     Exponent=  6.6420000000D-01 Coefficients= -4.5900000000D-02
     Exponent=  1.0730000000D-01 Coefficients=  3.7780000000D-01
     Exponent=  3.1900000000D-02 Coefficients=  7.2330000000D-01
 D 4 1.00
     Exponent=  1.3517000000D+00 Coefficients=  4.7870000000D-01
     Exponent=  5.1490000000D-01 Coefficients=  4.5820000000D-01
     Exponent=  1.9940000000D-01 Coefficients=  2.2030000000D-01
     Exponent=  7.7600000000D-02 Coefficients=  4.1200000000D-02
 ****
 Centers:      14
 lanl2dz
 ****
 ======================================================================================================
                                       Pseudopotential Parameters
 ======================================================================================================
  Center     Atomic      Valence      Angular      Power
  Number     Number     Electrons     Momentum     of R      Exponent        Coefficient   SO-Coeffient
 ======================================================================================================
    1         79           11
                                      G and up 
                                                     2        0.9657000       -0.98690200    0.00000000
                                                     2        2.2904000       -9.68630600    0.00000000
                                                     2        6.4383998      -32.57246399    0.00000000
                                                     2       16.3645992     -118.53087616    0.00000000
                                                     2       55.9892998     -286.25463867    0.00000000
                                                     1      171.1013947      -51.27423096    0.00000000
                                      S - G
                                                     2        1.2248000      -84.96929932    0.00000000
                                                     2        1.4336000      280.17764282    0.00000000
                                                     2        1.8929000     -354.64355469    0.00000000
                                                     2        2.6963000      334.33190918    0.00000000
                                                     2        3.9899001     -219.39260864    0.00000000
                                                     2        6.0054998      170.85874939    0.00000000
                                                     1       14.5825996       56.33872986    0.00000000
                                                     0       39.3106995        6.40929985    0.00000000
                                      P - G
                                                     2        0.9064000       -6.91190100    0.00000000
                                                     2        1.0311000       72.12546539    0.00000000
                                                     2        1.3287000     -114.97533417    0.00000000
                                                     2        1.9037000      123.61668396    0.00000000
                                                     2        2.8364000      -71.13571167    0.00000000
                                                     2        4.5883999       79.01660156    0.00000000
                                                     1       11.1981001       51.28700638    0.00000000
                                                     0       32.2957001        5.65198278    0.00000000
                                      D - G
                                                     2        0.2931000       -0.11365700    0.00000000
                                                     2        1.0301000       -2.40402508    0.00000000
                                                     2        2.0186000       62.58111572    0.00000000
                                                     2        3.4391999      255.44717407    0.00000000
                                                     2        5.1578999     -161.80647278    0.00000000
                                                     2        2.5149000     -175.77076721    0.00000000
                                                     1        8.0623999       63.62079239    0.00000000
                                                     0       41.0284996        6.75031996    0.00000000
                                      F - G
                                                     2        0.4335000      -47.60779953    0.00000000
                                                     2        0.5097000      176.31802368    0.00000000
                                                     2        0.5796000     -168.67689514    0.00000000
                                                     2        0.7711000       54.49244690    0.00000000
                                                     2        2.5934999       37.71539307    0.00000000
                                                     2        8.3907003      -24.13967514    0.00000000
                                                     1        6.9294000       49.16802216    0.00000000
                                                     0       22.2588997        4.75958586    0.00000000
    2         79           11
                                      G and up 
                                                     2        0.9657000       -0.98690200    0.00000000
                                                     2        2.2904000       -9.68630600    0.00000000
                                                     2        6.4383998      -32.57246399    0.00000000
                                                     2       16.3645992     -118.53087616    0.00000000
                                                     2       55.9892998     -286.25463867    0.00000000
                                                     1      171.1013947      -51.27423096    0.00000000
                                      S - G
                                                     2        1.2248000      -84.96929932    0.00000000
                                                     2        1.4336000      280.17764282    0.00000000
                                                     2        1.8929000     -354.64355469    0.00000000
                                                     2        2.6963000      334.33190918    0.00000000
                                                     2        3.9899001     -219.39260864    0.00000000
                                                     2        6.0054998      170.85874939    0.00000000
                                                     1       14.5825996       56.33872986    0.00000000
                                                     0       39.3106995        6.40929985    0.00000000
                                      P - G
                                                     2        0.9064000       -6.91190100    0.00000000
                                                     2        1.0311000       72.12546539    0.00000000
                                                     2        1.3287000     -114.97533417    0.00000000
                                                     2        1.9037000      123.61668396    0.00000000
                                                     2        2.8364000      -71.13571167    0.00000000
                                                     2        4.5883999       79.01660156    0.00000000
                                                     1       11.1981001       51.28700638    0.00000000
                                                     0       32.2957001        5.65198278    0.00000000
                                      D - G
                                                     2        0.2931000       -0.11365700    0.00000000
                                                     2        1.0301000       -2.40402508    0.00000000
                                                     2        2.0186000       62.58111572    0.00000000
                                                     2        3.4391999      255.44717407    0.00000000
                                                     2        5.1578999     -161.80647278    0.00000000
                                                     2        2.5149000     -175.77076721    0.00000000
                                                     1        8.0623999       63.62079239    0.00000000
                                                     0       41.0284996        6.75031996    0.00000000
                                      F - G
                                                     2        0.4335000      -47.60779953    0.00000000
                                                     2        0.5097000      176.31802368    0.00000000
                                                     2        0.5796000     -168.67689514    0.00000000
                                                     2        0.7711000       54.49244690    0.00000000
                                                     2        2.5934999       37.71539307    0.00000000
                                                     2        8.3907003      -24.13967514    0.00000000
                                                     1        6.9294000       49.16802216    0.00000000
                                                     0       22.2588997        4.75958586    0.00000000
    3         79           11
                                      G and up 
                                                     2        0.9657000       -0.98690200    0.00000000
                                                     2        2.2904000       -9.68630600    0.00000000
                                                     2        6.4383998      -32.57246399    0.00000000
                                                     2       16.3645992     -118.53087616    0.00000000
                                                     2       55.9892998     -286.25463867    0.00000000
                                                     1      171.1013947      -51.27423096    0.00000000
                                      S - G
                                                     2        1.2248000      -84.96929932    0.00000000
                                                     2        1.4336000      280.17764282    0.00000000
                                                     2        1.8929000     -354.64355469    0.00000000
                                                     2        2.6963000      334.33190918    0.00000000
                                                     2        3.9899001     -219.39260864    0.00000000
                                                     2        6.0054998      170.85874939    0.00000000
                                                     1       14.5825996       56.33872986    0.00000000
                                                     0       39.3106995        6.40929985    0.00000000
                                      P - G
                                                     2        0.9064000       -6.91190100    0.00000000
                                                     2        1.0311000       72.12546539    0.00000000
                                                     2        1.3287000     -114.97533417    0.00000000
                                                     2        1.9037000      123.61668396    0.00000000
                                                     2        2.8364000      -71.13571167    0.00000000
                                                     2        4.5883999       79.01660156    0.00000000
                                                     1       11.1981001       51.28700638    0.00000000
                                                     0       32.2957001        5.65198278    0.00000000
                                      D - G
                                                     2        0.2931000       -0.11365700    0.00000000
                                                     2        1.0301000       -2.40402508    0.00000000
                                                     2        2.0186000       62.58111572    0.00000000
                                                     2        3.4391999      255.44717407    0.00000000
                                                     2        5.1578999     -161.80647278    0.00000000
                                                     2        2.5149000     -175.77076721    0.00000000
                                                     1        8.0623999       63.62079239    0.00000000
                                                     0       41.0284996        6.75031996    0.00000000
                                      F - G
                                                     2        0.4335000      -47.60779953    0.00000000
                                                     2        0.5097000      176.31802368    0.00000000
                                                     2        0.5796000     -168.67689514    0.00000000
                                                     2        0.7711000       54.49244690    0.00000000
                                                     2        2.5934999       37.71539307    0.00000000
                                                     2        8.3907003      -24.13967514    0.00000000
                                                     1        6.9294000       49.16802216    0.00000000
                                                     0       22.2588997        4.75958586    0.00000000
    4         79           11
                                      G and up 
                                                     2        0.9657000       -0.98690200    0.00000000
                                                     2        2.2904000       -9.68630600    0.00000000
                                                     2        6.4383998      -32.57246399    0.00000000
                                                     2       16.3645992     -118.53087616    0.00000000
                                                     2       55.9892998     -286.25463867    0.00000000
                                                     1      171.1013947      -51.27423096    0.00000000
                                      S - G
                                                     2        1.2248000      -84.96929932    0.00000000
                                                     2        1.4336000      280.17764282    0.00000000
                                                     2        1.8929000     -354.64355469    0.00000000
                                                     2        2.6963000      334.33190918    0.00000000
                                                     2        3.9899001     -219.39260864    0.00000000
                                                     2        6.0054998      170.85874939    0.00000000
                                                     1       14.5825996       56.33872986    0.00000000
                                                     0       39.3106995        6.40929985    0.00000000
                                      P - G
                                                     2        0.9064000       -6.91190100    0.00000000
                                                     2        1.0311000       72.12546539    0.00000000
                                                     2        1.3287000     -114.97533417    0.00000000
                                                     2        1.9037000      123.61668396    0.00000000
                                                     2        2.8364000      -71.13571167    0.00000000
                                                     2        4.5883999       79.01660156    0.00000000
                                                     1       11.1981001       51.28700638    0.00000000
                                                     0       32.2957001        5.65198278    0.00000000
                                      D - G
                                                     2        0.2931000       -0.11365700    0.00000000
                                                     2        1.0301000       -2.40402508    0.00000000
                                                     2        2.0186000       62.58111572    0.00000000
                                                     2        3.4391999      255.44717407    0.00000000
                                                     2        5.1578999     -161.80647278    0.00000000
                                                     2        2.5149000     -175.77076721    0.00000000
                                                     1        8.0623999       63.62079239    0.00000000
                                                     0       41.0284996        6.75031996    0.00000000
                                      F - G
                                                     2        0.4335000      -47.60779953    0.00000000
                                                     2        0.5097000      176.31802368    0.00000000
                                                     2        0.5796000     -168.67689514    0.00000000
                                                     2        0.7711000       54.49244690    0.00000000
                                                     2        2.5934999       37.71539307    0.00000000
                                                     2        8.3907003      -24.13967514    0.00000000
                                                     1        6.9294000       49.16802216    0.00000000
                                                     0       22.2588997        4.75958586    0.00000000
    5         79           11
                                      G and up 
                                                     2        0.9657000       -0.98690200    0.00000000
                                                     2        2.2904000       -9.68630600    0.00000000
                                                     2        6.4383998      -32.57246399    0.00000000
                                                     2       16.3645992     -118.53087616    0.00000000
                                                     2       55.9892998     -286.25463867    0.00000000
                                                     1      171.1013947      -51.27423096    0.00000000
                                      S - G
                                                     2        1.2248000      -84.96929932    0.00000000
                                                     2        1.4336000      280.17764282    0.00000000
                                                     2        1.8929000     -354.64355469    0.00000000
                                                     2        2.6963000      334.33190918    0.00000000
                                                     2        3.9899001     -219.39260864    0.00000000
                                                     2        6.0054998      170.85874939    0.00000000
                                                     1       14.5825996       56.33872986    0.00000000
                                                     0       39.3106995        6.40929985    0.00000000
                                      P - G
                                                     2        0.9064000       -6.91190100    0.00000000
                                                     2        1.0311000       72.12546539    0.00000000
                                                     2        1.3287000     -114.97533417    0.00000000
                                                     2        1.9037000      123.61668396    0.00000000
                                                     2        2.8364000      -71.13571167    0.00000000
                                                     2        4.5883999       79.01660156    0.00000000
                                                     1       11.1981001       51.28700638    0.00000000
                                                     0       32.2957001        5.65198278    0.00000000
                                      D - G
                                                     2        0.2931000       -0.11365700    0.00000000
                                                     2        1.0301000       -2.40402508    0.00000000
                                                     2        2.0186000       62.58111572    0.00000000
                                                     2        3.4391999      255.44717407    0.00000000
                                                     2        5.1578999     -161.80647278    0.00000000
                                                     2        2.5149000     -175.77076721    0.00000000
                                                     1        8.0623999       63.62079239    0.00000000
                                                     0       41.0284996        6.75031996    0.00000000
                                      F - G
                                                     2        0.4335000      -47.60779953    0.00000000
                                                     2        0.5097000      176.31802368    0.00000000
                                                     2        0.5796000     -168.67689514    0.00000000
                                                     2        0.7711000       54.49244690    0.00000000
                                                     2        2.5934999       37.71539307    0.00000000
                                                     2        8.3907003      -24.13967514    0.00000000
                                                     1        6.9294000       49.16802216    0.00000000
                                                     0       22.2588997        4.75958586    0.00000000
    6         79           11
                                      G and up 
                                                     2        0.9657000       -0.98690200    0.00000000
                                                     2        2.2904000       -9.68630600    0.00000000
                                                     2        6.4383998      -32.57246399    0.00000000
                                                     2       16.3645992     -118.53087616    0.00000000
                                                     2       55.9892998     -286.25463867    0.00000000
                                                     1      171.1013947      -51.27423096    0.00000000
                                      S - G
                                                     2        1.2248000      -84.96929932    0.00000000
                                                     2        1.4336000      280.17764282    0.00000000
                                                     2        1.8929000     -354.64355469    0.00000000
                                                     2        2.6963000      334.33190918    0.00000000
                                                     2        3.9899001     -219.39260864    0.00000000
                                                     2        6.0054998      170.85874939    0.00000000
                                                     1       14.5825996       56.33872986    0.00000000
                                                     0       39.3106995        6.40929985    0.00000000
                                      P - G
                                                     2        0.9064000       -6.91190100    0.00000000
                                                     2        1.0311000       72.12546539    0.00000000
                                                     2        1.3287000     -114.97533417    0.00000000
                                                     2        1.9037000      123.61668396    0.00000000
                                                     2        2.8364000      -71.13571167    0.00000000
                                                     2        4.5883999       79.01660156    0.00000000
                                                     1       11.1981001       51.28700638    0.00000000
                                                     0       32.2957001        5.65198278    0.00000000
                                      D - G
                                                     2        0.2931000       -0.11365700    0.00000000
                                                     2        1.0301000       -2.40402508    0.00000000
                                                     2        2.0186000       62.58111572    0.00000000
                                                     2        3.4391999      255.44717407    0.00000000
                                                     2        5.1578999     -161.80647278    0.00000000
                                                     2        2.5149000     -175.77076721    0.00000000
                                                     1        8.0623999       63.62079239    0.00000000
                                                     0       41.0284996        6.75031996    0.00000000
                                      F - G
                                                     2        0.4335000      -47.60779953    0.00000000
                                                     2        0.5097000      176.31802368    0.00000000
                                                     2        0.5796000     -168.67689514    0.00000000
                                                     2        0.7711000       54.49244690    0.00000000
                                                     2        2.5934999       37.71539307    0.00000000
                                                     2        8.3907003      -24.13967514    0.00000000
                                                     1        6.9294000       49.16802216    0.00000000
                                                     0       22.2588997        4.75958586    0.00000000
    7         79           11
                                      G and up 
                                                     2        0.9657000       -0.98690200    0.00000000
                                                     2        2.2904000       -9.68630600    0.00000000
                                                     2        6.4383998      -32.57246399    0.00000000
                                                     2       16.3645992     -118.53087616    0.00000000
                                                     2       55.9892998     -286.25463867    0.00000000
                                                     1      171.1013947      -51.27423096    0.00000000
                                      S - G
                                                     2        1.2248000      -84.96929932    0.00000000
                                                     2        1.4336000      280.17764282    0.00000000
                                                     2        1.8929000     -354.64355469    0.00000000
                                                     2        2.6963000      334.33190918    0.00000000
                                                     2        3.9899001     -219.39260864    0.00000000
                                                     2        6.0054998      170.85874939    0.00000000
                                                     1       14.5825996       56.33872986    0.00000000
                                                     0       39.3106995        6.40929985    0.00000000
                                      P - G
                                                     2        0.9064000       -6.91190100    0.00000000
                                                     2        1.0311000       72.12546539    0.00000000
                                                     2        1.3287000     -114.97533417    0.00000000
                                                     2        1.9037000      123.61668396    0.00000000
                                                     2        2.8364000      -71.13571167    0.00000000
                                                     2        4.5883999       79.01660156    0.00000000
                                                     1       11.1981001       51.28700638    0.00000000
                                                     0       32.2957001        5.65198278    0.00000000
                                      D - G
                                                     2        0.2931000       -0.11365700    0.00000000
                                                     2        1.0301000       -2.40402508    0.00000000
                                                     2        2.0186000       62.58111572    0.00000000
                                                     2        3.4391999      255.44717407    0.00000000
                                                     2        5.1578999     -161.80647278    0.00000000
                                                     2        2.5149000     -175.77076721    0.00000000
                                                     1        8.0623999       63.62079239    0.00000000
                                                     0       41.0284996        6.75031996    0.00000000
                                      F - G
                                                     2        0.4335000      -47.60779953    0.00000000
                                                     2        0.5097000      176.31802368    0.00000000
                                                     2        0.5796000     -168.67689514    0.00000000
                                                     2        0.7711000       54.49244690    0.00000000
                                                     2        2.5934999       37.71539307    0.00000000
                                                     2        8.3907003      -24.13967514    0.00000000
                                                     1        6.9294000       49.16802216    0.00000000
                                                     0       22.2588997        4.75958586    0.00000000
    8         79           11
                                      G and up 
                                                     2        0.9657000       -0.98690200    0.00000000
                                                     2        2.2904000       -9.68630600    0.00000000
                                                     2        6.4383998      -32.57246399    0.00000000
                                                     2       16.3645992     -118.53087616    0.00000000
                                                     2       55.9892998     -286.25463867    0.00000000
                                                     1      171.1013947      -51.27423096    0.00000000
                                      S - G
                                                     2        1.2248000      -84.96929932    0.00000000
                                                     2        1.4336000      280.17764282    0.00000000
                                                     2        1.8929000     -354.64355469    0.00000000
                                                     2        2.6963000      334.33190918    0.00000000
                                                     2        3.9899001     -219.39260864    0.00000000
                                                     2        6.0054998      170.85874939    0.00000000
                                                     1       14.5825996       56.33872986    0.00000000
                                                     0       39.3106995        6.40929985    0.00000000
                                      P - G
                                                     2        0.9064000       -6.91190100    0.00000000
                                                     2        1.0311000       72.12546539    0.00000000
                                                     2        1.3287000     -114.97533417    0.00000000
                                                     2        1.9037000      123.61668396    0.00000000
                                                     2        2.8364000      -71.13571167    0.00000000
                                                     2        4.5883999       79.01660156    0.00000000
                                                     1       11.1981001       51.28700638    0.00000000
                                                     0       32.2957001        5.65198278    0.00000000
                                      D - G
                                                     2        0.2931000       -0.11365700    0.00000000
                                                     2        1.0301000       -2.40402508    0.00000000
                                                     2        2.0186000       62.58111572    0.00000000
                                                     2        3.4391999      255.44717407    0.00000000
                                                     2        5.1578999     -161.80647278    0.00000000
                                                     2        2.5149000     -175.77076721    0.00000000
                                                     1        8.0623999       63.62079239    0.00000000
                                                     0       41.0284996        6.75031996    0.00000000
                                      F - G
                                                     2        0.4335000      -47.60779953    0.00000000
                                                     2        0.5097000      176.31802368    0.00000000
                                                     2        0.5796000     -168.67689514    0.00000000
                                                     2        0.7711000       54.49244690    0.00000000
                                                     2        2.5934999       37.71539307    0.00000000
                                                     2        8.3907003      -24.13967514    0.00000000
                                                     1        6.9294000       49.16802216    0.00000000
                                                     0       22.2588997        4.75958586    0.00000000
    9         79           11
                                      G and up 
                                                     2        0.9657000       -0.98690200    0.00000000
                                                     2        2.2904000       -9.68630600    0.00000000
                                                     2        6.4383998      -32.57246399    0.00000000
                                                     2       16.3645992     -118.53087616    0.00000000
                                                     2       55.9892998     -286.25463867    0.00000000
                                                     1      171.1013947      -51.27423096    0.00000000
                                      S - G
                                                     2        1.2248000      -84.96929932    0.00000000
                                                     2        1.4336000      280.17764282    0.00000000
                                                     2        1.8929000     -354.64355469    0.00000000
                                                     2        2.6963000      334.33190918    0.00000000
                                                     2        3.9899001     -219.39260864    0.00000000
                                                     2        6.0054998      170.85874939    0.00000000
                                                     1       14.5825996       56.33872986    0.00000000
                                                     0       39.3106995        6.40929985    0.00000000
                                      P - G
                                                     2        0.9064000       -6.91190100    0.00000000
                                                     2        1.0311000       72.12546539    0.00000000
                                                     2        1.3287000     -114.97533417    0.00000000
                                                     2        1.9037000      123.61668396    0.00000000
                                                     2        2.8364000      -71.13571167    0.00000000
                                                     2        4.5883999       79.01660156    0.00000000
                                                     1       11.1981001       51.28700638    0.00000000
                                                     0       32.2957001        5.65198278    0.00000000
                                      D - G
                                                     2        0.2931000       -0.11365700    0.00000000
                                                     2        1.0301000       -2.40402508    0.00000000
                                                     2        2.0186000       62.58111572    0.00000000
                                                     2        3.4391999      255.44717407    0.00000000
                                                     2        5.1578999     -161.80647278    0.00000000
                                                     2        2.5149000     -175.77076721    0.00000000
                                                     1        8.0623999       63.62079239    0.00000000
                                                     0       41.0284996        6.75031996    0.00000000
                                      F - G
                                                     2        0.4335000      -47.60779953    0.00000000
                                                     2        0.5097000      176.31802368    0.00000000
                                                     2        0.5796000     -168.67689514    0.00000000
                                                     2        0.7711000       54.49244690    0.00000000
                                                     2        2.5934999       37.71539307    0.00000000
                                                     2        8.3907003      -24.13967514    0.00000000
                                                     1        6.9294000       49.16802216    0.00000000
                                                     0       22.2588997        4.75958586    0.00000000
   10         79           11
                                      G and up 
                                                     2        0.9657000       -0.98690200    0.00000000
                                                     2        2.2904000       -9.68630600    0.00000000
                                                     2        6.4383998      -32.57246399    0.00000000
                                                     2       16.3645992     -118.53087616    0.00000000
                                                     2       55.9892998     -286.25463867    0.00000000
                                                     1      171.1013947      -51.27423096    0.00000000
                                      S - G
                                                     2        1.2248000      -84.96929932    0.00000000
                                                     2        1.4336000      280.17764282    0.00000000
                                                     2        1.8929000     -354.64355469    0.00000000
                                                     2        2.6963000      334.33190918    0.00000000
                                                     2        3.9899001     -219.39260864    0.00000000
                                                     2        6.0054998      170.85874939    0.00000000
                                                     1       14.5825996       56.33872986    0.00000000
                                                     0       39.3106995        6.40929985    0.00000000
                                      P - G
                                                     2        0.9064000       -6.91190100    0.00000000
                                                     2        1.0311000       72.12546539    0.00000000
                                                     2        1.3287000     -114.97533417    0.00000000
                                                     2        1.9037000      123.61668396    0.00000000
                                                     2        2.8364000      -71.13571167    0.00000000
                                                     2        4.5883999       79.01660156    0.00000000
                                                     1       11.1981001       51.28700638    0.00000000
                                                     0       32.2957001        5.65198278    0.00000000
                                      D - G
                                                     2        0.2931000       -0.11365700    0.00000000
                                                     2        1.0301000       -2.40402508    0.00000000
                                                     2        2.0186000       62.58111572    0.00000000
                                                     2        3.4391999      255.44717407    0.00000000
                                                     2        5.1578999     -161.80647278    0.00000000
                                                     2        2.5149000     -175.77076721    0.00000000
                                                     1        8.0623999       63.62079239    0.00000000
                                                     0       41.0284996        6.75031996    0.00000000
                                      F - G
                                                     2        0.4335000      -47.60779953    0.00000000
                                                     2        0.5097000      176.31802368    0.00000000
                                                     2        0.5796000     -168.67689514    0.00000000
                                                     2        0.7711000       54.49244690    0.00000000
                                                     2        2.5934999       37.71539307    0.00000000
                                                     2        8.3907003      -24.13967514    0.00000000
                                                     1        6.9294000       49.16802216    0.00000000
                                                     0       22.2588997        4.75958586    0.00000000
   11         79           11
                                      G and up 
                                                     2        0.9657000       -0.98690200    0.00000000
                                                     2        2.2904000       -9.68630600    0.00000000
                                                     2        6.4383998      -32.57246399    0.00000000
                                                     2       16.3645992     -118.53087616    0.00000000
                                                     2       55.9892998     -286.25463867    0.00000000
                                                     1      171.1013947      -51.27423096    0.00000000
                                      S - G
                                                     2        1.2248000      -84.96929932    0.00000000
                                                     2        1.4336000      280.17764282    0.00000000
                                                     2        1.8929000     -354.64355469    0.00000000
                                                     2        2.6963000      334.33190918    0.00000000
                                                     2        3.9899001     -219.39260864    0.00000000
                                                     2        6.0054998      170.85874939    0.00000000
                                                     1       14.5825996       56.33872986    0.00000000
                                                     0       39.3106995        6.40929985    0.00000000
                                      P - G
                                                     2        0.9064000       -6.91190100    0.00000000
                                                     2        1.0311000       72.12546539    0.00000000
                                                     2        1.3287000     -114.97533417    0.00000000
                                                     2        1.9037000      123.61668396    0.00000000
                                                     2        2.8364000      -71.13571167    0.00000000
                                                     2        4.5883999       79.01660156    0.00000000
                                                     1       11.1981001       51.28700638    0.00000000
                                                     0       32.2957001        5.65198278    0.00000000
                                      D - G
                                                     2        0.2931000       -0.11365700    0.00000000
                                                     2        1.0301000       -2.40402508    0.00000000
                                                     2        2.0186000       62.58111572    0.00000000
                                                     2        3.4391999      255.44717407    0.00000000
                                                     2        5.1578999     -161.80647278    0.00000000
                                                     2        2.5149000     -175.77076721    0.00000000
                                                     1        8.0623999       63.62079239    0.00000000
                                                     0       41.0284996        6.75031996    0.00000000
                                      F - G
                                                     2        0.4335000      -47.60779953    0.00000000
                                                     2        0.5097000      176.31802368    0.00000000
                                                     2        0.5796000     -168.67689514    0.00000000
                                                     2        0.7711000       54.49244690    0.00000000
                                                     2        2.5934999       37.71539307    0.00000000
                                                     2        8.3907003      -24.13967514    0.00000000
                                                     1        6.9294000       49.16802216    0.00000000
                                                     0       22.2588997        4.75958586    0.00000000
   12         79           11
                                      G and up 
                                                     2        0.9657000       -0.98690200    0.00000000
                                                     2        2.2904000       -9.68630600    0.00000000
                                                     2        6.4383998      -32.57246399    0.00000000
                                                     2       16.3645992     -118.53087616    0.00000000
                                                     2       55.9892998     -286.25463867    0.00000000
                                                     1      171.1013947      -51.27423096    0.00000000
                                      S - G
                                                     2        1.2248000      -84.96929932    0.00000000
                                                     2        1.4336000      280.17764282    0.00000000
                                                     2        1.8929000     -354.64355469    0.00000000
                                                     2        2.6963000      334.33190918    0.00000000
                                                     2        3.9899001     -219.39260864    0.00000000
                                                     2        6.0054998      170.85874939    0.00000000
                                                     1       14.5825996       56.33872986    0.00000000
                                                     0       39.3106995        6.40929985    0.00000000
                                      P - G
                                                     2        0.9064000       -6.91190100    0.00000000
                                                     2        1.0311000       72.12546539    0.00000000
                                                     2        1.3287000     -114.97533417    0.00000000
                                                     2        1.9037000      123.61668396    0.00000000
                                                     2        2.8364000      -71.13571167    0.00000000
                                                     2        4.5883999       79.01660156    0.00000000
                                                     1       11.1981001       51.28700638    0.00000000
                                                     0       32.2957001        5.65198278    0.00000000
                                      D - G
                                                     2        0.2931000       -0.11365700    0.00000000
                                                     2        1.0301000       -2.40402508    0.00000000
                                                     2        2.0186000       62.58111572    0.00000000
                                                     2        3.4391999      255.44717407    0.00000000
                                                     2        5.1578999     -161.80647278    0.00000000
                                                     2        2.5149000     -175.77076721    0.00000000
                                                     1        8.0623999       63.62079239    0.00000000
                                                     0       41.0284996        6.75031996    0.00000000
                                      F - G
                                                     2        0.4335000      -47.60779953    0.00000000
                                                     2        0.5097000      176.31802368    0.00000000
                                                     2        0.5796000     -168.67689514    0.00000000
                                                     2        0.7711000       54.49244690    0.00000000
                                                     2        2.5934999       37.71539307    0.00000000
                                                     2        8.3907003      -24.13967514    0.00000000
                                                     1        6.9294000       49.16802216    0.00000000
                                                     0       22.2588997        4.75958586    0.00000000
   13         79           11
                                      G and up 
                                                     2        0.9657000       -0.98690200    0.00000000
                                                     2        2.2904000       -9.68630600    0.00000000
                                                     2        6.4383998      -32.57246399    0.00000000
                                                     2       16.3645992     -118.53087616    0.00000000
                                                     2       55.9892998     -286.25463867    0.00000000
                                                     1      171.1013947      -51.27423096    0.00000000
                                      S - G
                                                     2        1.2248000      -84.96929932    0.00000000
                                                     2        1.4336000      280.17764282    0.00000000
                                                     2        1.8929000     -354.64355469    0.00000000
                                                     2        2.6963000      334.33190918    0.00000000
                                                     2        3.9899001     -219.39260864    0.00000000
                                                     2        6.0054998      170.85874939    0.00000000
                                                     1       14.5825996       56.33872986    0.00000000
                                                     0       39.3106995        6.40929985    0.00000000
                                      P - G
                                                     2        0.9064000       -6.91190100    0.00000000
                                                     2        1.0311000       72.12546539    0.00000000
                                                     2        1.3287000     -114.97533417    0.00000000
                                                     2        1.9037000      123.61668396    0.00000000
                                                     2        2.8364000      -71.13571167    0.00000000
                                                     2        4.5883999       79.01660156    0.00000000
                                                     1       11.1981001       51.28700638    0.00000000
                                                     0       32.2957001        5.65198278    0.00000000
                                      D - G
                                                     2        0.2931000       -0.11365700    0.00000000
                                                     2        1.0301000       -2.40402508    0.00000000
                                                     2        2.0186000       62.58111572    0.00000000
                                                     2        3.4391999      255.44717407    0.00000000
                                                     2        5.1578999     -161.80647278    0.00000000
                                                     2        2.5149000     -175.77076721    0.00000000
                                                     1        8.0623999       63.62079239    0.00000000
                                                     0       41.0284996        6.75031996    0.00000000
                                      F - G
                                                     2        0.4335000      -47.60779953    0.00000000
                                                     2        0.5097000      176.31802368    0.00000000
                                                     2        0.5796000     -168.67689514    0.00000000
                                                     2        0.7711000       54.49244690    0.00000000
                                                     2        2.5934999       37.71539307    0.00000000
                                                     2        8.3907003      -24.13967514    0.00000000
                                                     1        6.9294000       49.16802216    0.00000000
                                                     0       22.2588997        4.75958586    0.00000000
   14         79           19
                                      G and up 
                                                     1      622.6287956      -60.00000000    0.00000000
                                                     2      136.2843607     -555.52923120    0.00000000
                                                     2       33.1549781     -168.00197850    0.00000000
                                                     2        9.9894895      -63.03998750    0.00000000
                                                     2        3.0481312       -4.25166810    0.00000000
                                      S - G
                                                     0      194.7374304        3.00000000    0.00000000
                                                     1      351.5327447       38.60208800    0.00000000
                                                     2      122.3270402      864.83707270    0.00000000
                                                     2       32.0914617      374.99355200    0.00000000
                                                     2        5.2451812      289.79101000    0.00000000
                                                     2        4.4916223     -152.45327730    0.00000000
                                      P - G
                                                     0      420.6158801        2.00000000    0.00000000
                                                     1      109.4417815       73.88856250    0.00000000
                                                     2       34.1714280      326.67298720    0.00000000
                                                     2        5.9879750      126.58145910    0.00000000
                                      D - G
                                                     0      219.2666158        3.00000000    0.00000000
                                                     1      122.7297786       55.67931490    0.00000000
                                                     2       63.1063369      449.19873350    0.00000000
                                                     2       18.3684520      215.02690910    0.00000000
                                                     2        4.4972844       64.08409950    0.00000000
                                      F - G
                                                     0      108.5506037        4.00000000    0.00000000
                                                     1       56.4795527       51.80653350    0.00000000
                                                     2       29.2069159      231.21831130    0.00000000
                                                     2        9.5440543      119.00473860    0.00000000
                                                     2        2.8965118       15.34241880    0.00000000
   15         79           11
                                      G and up 
                                                     2        0.9657000       -0.98690200    0.00000000
                                                     2        2.2904000       -9.68630600    0.00000000
                                                     2        6.4383998      -32.57246399    0.00000000
                                                     2       16.3645992     -118.53087616    0.00000000
                                                     2       55.9892998     -286.25463867    0.00000000
                                                     1      171.1013947      -51.27423096    0.00000000
                                      S - G
                                                     2        1.2248000      -84.96929932    0.00000000
                                                     2        1.4336000      280.17764282    0.00000000
                                                     2        1.8929000     -354.64355469    0.00000000
                                                     2        2.6963000      334.33190918    0.00000000
                                                     2        3.9899001     -219.39260864    0.00000000
                                                     2        6.0054998      170.85874939    0.00000000
                                                     1       14.5825996       56.33872986    0.00000000
                                                     0       39.3106995        6.40929985    0.00000000
                                      P - G
                                                     2        0.9064000       -6.91190100    0.00000000
                                                     2        1.0311000       72.12546539    0.00000000
                                                     2        1.3287000     -114.97533417    0.00000000
                                                     2        1.9037000      123.61668396    0.00000000
                                                     2        2.8364000      -71.13571167    0.00000000
                                                     2        4.5883999       79.01660156    0.00000000
                                                     1       11.1981001       51.28700638    0.00000000
                                                     0       32.2957001        5.65198278    0.00000000
                                      D - G
                                                     2        0.2931000       -0.11365700    0.00000000
                                                     2        1.0301000       -2.40402508    0.00000000
                                                     2        2.0186000       62.58111572    0.00000000
                                                     2        3.4391999      255.44717407    0.00000000
                                                     2        5.1578999     -161.80647278    0.00000000
                                                     2        2.5149000     -175.77076721    0.00000000
                                                     1        8.0623999       63.62079239    0.00000000
                                                     0       41.0284996        6.75031996    0.00000000
                                      F - G
                                                     2        0.4335000      -47.60779953    0.00000000
                                                     2        0.5097000      176.31802368    0.00000000
                                                     2        0.5796000     -168.67689514    0.00000000
[...]
 -------------------
 Initializing device
 -------------------
 ----------------------------------------------------------
 Analyzing cluster for the connection of the  Bethe Lattice
 ----------------------------------------------------------
 
 Atom type of lead 1: Au
 Atom type of lead 2: Au
 
    1   79  11.    9    1    9
    2   79  11.    9   10   18
    3   79  11.    9   19   27
    4   79  11.    9   28   36
    5   79  11.    9   37   45
    6   79  11.    9   46   54
    7   79  11.    9   55   63
    8   79  11.    9   64   72
    9   79  11.    9   73   81
   10   79  11.    9   82   90
   11   79  11.    9   91   99
   12   79  11.    9  100  108
   13   79  11.    9  109  117
   14   79  19.   22  118  139
   15   79  11.    9  140  148
   16   79  11.    9  149  157
   17   79  11.    9  158  166
   18   79  11.    9  167  175
   19   79  11.    9  176  184
   20   79  11.    9  185  193
   21   79  11.    9  194  202
   22   79  11.    9  203  211
   23   79  11.    9  212  220
   24   79  11.    9  221  229
   25   79  11.    9  230  238
   26   79  11.    9  239  247
   27   79  11.    9  248  256
 
  Center of charge:
   0.000000   0.000000   4.724315
 
  Atoms in left electrode:                       13
   1  Au   0.000000   0.000000  13.228083
   2  Au  -3.779452   3.779452  13.228083
   3  Au   3.779452   3.779452  13.228083
   4  Au  -3.779452  -3.779452  13.228083
   5  Au   3.779452  -3.779452  13.228083
   6  Au  -7.558905   0.000000  13.228083
   7  Au   0.000000   7.558905  13.228083
   8  Au   7.558905   0.000000  13.228083
   9  Au   0.000000  -7.558905  13.228083
  10  Au   0.000000   3.779452   9.448631
  11  Au  -3.779452   0.000000   9.448631
  12  Au   0.000000  -3.779452   9.448631
  13  Au   3.779452   0.000000   9.448631
 
  Atoms in molecule:                        0
 
  Atoms in right electrode:                       14
  14  Au   0.000000  -7.558905  -3.779452
  15  Au   7.558905   0.000000  -3.779452
  16  Au   0.000000   7.558905  -3.779452
  17  Au  -7.558905   0.000000  -3.779452
  18  Au   3.779452  -3.779452  -3.779452
  19  Au  -3.779452  -3.779452  -3.779452
  20  Au   3.779452   3.779452  -3.779452
  21  Au  -3.779452   3.779452  -3.779452
  22  Au   0.000000   0.000000  -3.779452
  23  Au   3.779452   0.000000   0.000000
  24  Au   0.000000  -3.779452   0.000000
  25  Au  -3.779452   0.000000   0.000000
  26  Au   0.000000   3.779452   0.000000
  27  Au   0.000000   0.000000   4.724315
 
 Plane 1
 with normal vector (  0.000000,  0.000000,  1.000000 )
 has    9 atoms:
    1    1   0.000000   0.000000  13.228083
    2    1  -3.779452   3.779452  13.228083
    3    1   3.779452   3.779452  13.228083
    4    1  -3.779452  -3.779452  13.228083
    5    1   3.779452  -3.779452  13.228083
    6    1  -7.558905   0.000000  13.228083
    7    1   0.000000   7.558905  13.228083
    8    1   7.558905   0.000000  13.228083
    9    1   0.000000  -7.558905  13.228083
 
 Plane 2
 with normal vector (  0.000000,  0.000000, -1.000000 )
 has    9 atoms:
   19    2   0.000000   0.000000  -3.779452
   20    2  -3.779452   3.779452  -3.779452
   21    2   3.779452   3.779452  -3.779452
   22    2  -3.779452  -3.779452  -3.779452
   23    2   3.779452  -3.779452  -3.779452
   24    2  -7.558905   0.000000  -3.779452
   25    2   0.000000   7.558905  -3.779452
   26    2   7.558905   0.000000  -3.779452
   27    2   0.000000  -7.558905  -3.779452
 
 Finding lattice directions in electrode 1 ....
 Near-neighbor distance at electrode 1 =     2.828442044700474     
Found         12  lattice directions
  -0.70711   0.70711   0.00000
   0.70711  -0.70711   0.00000
   0.70711   0.70711   0.00000
  -0.70711  -0.70711   0.00000
   0.00000   0.70711  -0.70711
   0.00000  -0.70711   0.70711
  -0.70711   0.00000  -0.70711
   0.70711   0.00000   0.70711
   0.00000  -0.70711  -0.70711
   0.00000   0.70711   0.70711
   0.70711   0.00000  -0.70711
  -0.70711   0.00000   0.70711
 Finding lattice directions in electrode 2 ....
 Near-neighbor distance at electrode 2 =     2.828442044700474     
Found         12  lattice directions
   0.70711   0.70711   0.00000
  -0.70711  -0.70711   0.00000
  -0.70711   0.70711   0.00000
   0.70711  -0.70711   0.00000
   0.00000   0.70711   0.70711
   0.00000  -0.70711  -0.70711
  -0.70711   0.00000   0.70711
   0.70711   0.00000  -0.70711
   0.00000  -0.70711   0.70711
   0.00000   0.70711  -0.70711
   0.70711   0.00000   0.70711
  -0.70711   0.00000  -0.70711
 
 -----------------------------------------------------
 Inititalizing Bethe lattice for electrode No. 1
 -----------------------------------------------------
 
 Open file 
 /home/palacios/ANT.G/pgi/ANT.G-2.5.0/BLDAT/BL079.dat                                                
  to read Bethe lattice parameters.
 Reading Papacon                                            parameters.
 es        =   0.1462951858205988     
 ep        =   0.7766100140948970     
 edd       =  -6.3024450905033195E-003
 edt       =  -6.3024450905033195E-003
 sss       =  -8.6005177009077297E-002
 sps       =   7.0988773108470835E-002
 pps       =   0.1232006590220451     
 ppp       =   9.1176420987007945E-003
 sds       =  -4.5850378551635734E-002
 pds       =  -6.0239724360703753E-002
 pdp       =   1.4995218799923516E-002
 dds       =  -5.0431404373097746E-002
 ddp       =   2.8321000768526342E-002
 ddd       =  -3.8139645624318129E-003
 S_sss     =   0.1066464722283674     
 S_sps     =  -2.5486530408298212E-002
 S_pps     =  -3.7515334367475776E-002
 S_ppp     =   1.8544540540832353E-002
 S_sds     =   1.1315144159208514E-002
 S_pds     =   6.2270566775070930E-002
 S_pdp     =  -6.3206070557591332E-003
 S_dds     =   2.3016521466533529E-002
 S_ddp     =  -2.8039277820256420E-002
 S_ddd     =   8.4245392138668879E-004
 Done.
 Setting Fermi level to zero for Lead                         1
 Searching boundaries [EMin, EMax] such that Int[EMin, EMax] DOS(E) = 
                       18  ( Number of spin orbitals ).
 EMin=   -10.00000000000000        Charge=   1.6737623745655128E-005
 EMax=    20.00000000000000        Charge=    17.99998590562411     
 Now searching for Fermi energy...
 Secant method:
 Bethe lattice Fermi energy =     2.708929610926656     
 
 -----------------------------------------------------
 Inititalizing Bethe lattice for electrode No. 2
 -----------------------------------------------------
 
 Open file 
 /home/palacios/ANT.G/pgi/ANT.G-2.5.0/BLDAT/BL079.dat                                                
  to read Bethe lattice parameters.
 Reading Papacon                                            parameters.
 es        =   0.1462951858205988     
 ep        =   0.7766100140948970     
 edd       =  -6.3024450905033195E-003
 edt       =  -6.3024450905033195E-003
 sss       =  -8.6005177009077297E-002
 sps       =   7.0988773108470835E-002
 pps       =   0.1232006590220451     
 ppp       =   9.1176420987007945E-003
 sds       =  -4.5850378551635734E-002
 pds       =  -6.0239724360703753E-002
 pdp       =   1.4995218799923516E-002
 dds       =  -5.0431404373097746E-002
 ddp       =   2.8321000768526342E-002
 ddd       =  -3.8139645624318129E-003
 S_sss     =   0.1066464722283674     
 S_sps     =  -2.5486530408298212E-002
 S_pps     =  -3.7515334367475776E-002
 S_ppp     =   1.8544540540832353E-002
 S_sds     =   1.1315144159208514E-002
 S_pds     =   6.2270566775070930E-002
 S_pdp     =  -6.3206070557591332E-003
 S_dds     =   2.3016521466533529E-002
 S_ddp     =  -2.8039277820256420E-002
 S_ddd     =   8.4245392138668879E-004
 Done.
 Setting Fermi level to zero for Lead                         2
 Searching boundaries [EMin, EMax] such that Int[EMin, EMax] DOS(E) = 
                       18  ( Number of spin orbitals ).
 EMin=   -10.00000000000000        Charge=   1.6737623745655128E-005
 EMax=    20.00000000000000        Charge=    17.99998590562411     
 Now searching for Fermi energy...
 Secant method:
 Bethe lattice Fermi energy =     2.708929610926656     
 ---------------------------------------------------
  Details on device and contacting atoms -----------
 ---------------------------------------------------
 NEmbed(1) =                        9
 NEmbed(2) =                        9
 Number of electrons in neutral reduced device
 NCDEl =                       305
 First and last orbital in reduced device
 NCDAO1 =                         1
 NCDAO2 =                       256
 ---------------------------------------------------
 -------------------------------------------------------------------------------------------
 Starting calculation with density matrix from file  
 P.Au9-Au4-Au-Au4-Au9.dat                          
 -------------------------------------------------------------------------------------------
 -------------------------------------------------------------------------------------------
   ... and using supplementary density matrix from file  
 P.Au9-Au4-Au-Au4-Au9.dat0                         
 -------------------------------------------------------------------------------------------
 Tr[P*S] of initial guess =    301.8510053206097     
 --------------------------------
 FoFJK:  IHMeth= 1 ICntrl=     500 DoSepK=F KAlg= 0 I1Cent=   0 FoldK=F
 IRaf= 990000000 NMat=   1 IRICut=       1 DoRegI=T DoRafI=F ISym2E= 0.
 FoFCou: FMM=F IPFlag=           0 FMFlag=      100000 FMFlg1=           0
         NFxFlg=           0 DoJE=T BraDBF=F KetDBF=F FulRan=T
         wScrn=  0.000000 ICntrl=     500 IOpCl=  0 I1Cent=           0 NGrid=           0
         NMat0=    1 NMatS0=      1 NMatT0=    0 NMatD0=    1 NMtDS0=    0 NMtDT0=    0
 Symmetry not used in FoFCou.
 Defaulting to unpruned grid for atomic number  79.
 Defaulting to unpruned grid for atomic number  79.
 Defaulting to unpruned grid for atomic number  79.
 Defaulting to unpruned grid for atomic number  79.
 E= -1042.89330988151    
 -------------------------------------------------------------------------
 Computing the density matrix at cycle:                        1
 -------------------------------------------------------------------------
 EMin=   -476.3576908307484     
 EMax=    476.3576908307484     
 --------------
 Charge Control
 --------------
 Searching energy boundaries [EMin, EMax] such that
 Total Integrated Spectral Weight (TISW)= 512
 EMin=  -476.35769  EMax=   476.35769  TISW= 511.99998
 --------------------------------------------------
 MULLER method
 Integration of P has needed a max no. of loops 128
 Integration of P has needed a max no. of loops 128
 Integration of P has needed a max no. of loops 128
 Integration of P has needed a max no. of loops 128
 Integration of P has needed a max no. of loops 128
 -----------------------------------------------
 Fermi energy=  -8.63080  +/-  0.00067
 
 Number of alpha electrons:  152.49999
 Number of beta electrons:   152.49999
 Total number of electrons:   304.99998
 -----------------------------------------------
 DIIS: error= 3.97D-01 at cycle   1 NSaved=   1.
 NSaved= 1 IEnMin= 1 EnMin= -1042.89330988151     IErMin= 1 ErrMin= 3.97D-01
 ErrMax= 3.97D-01  0.00D+00 EMaxC= 1.00D-01 BMatC= 8.97D-01 BMatP= 8.97D-01
 IDIUse=3 WtCom= 0.00D+00 WtEn= 1.00D+00
 Coeff-Com:  0.100D+01
 Coeff-En:   0.100D+01
 Coeff:      0.100D+01
 GapD=    2.000 DampG=2.000 DampE=0.125 DampFc=0.2500 IDamp=-1.
 Damping current iteration by 2.50D-01
 RMSDP=4.91D-03 MaxDP=2.65D-01              OVMax= 0.00D+00

 Cycle   2  Pass 1  IDiag  1:
 E= -1042.43062634352     Delta-E=        0.462683537991 Rises=F Damp=T
 -------------------------------------------------------------------------
 Computing the density matrix at cycle:                        2
 -------------------------------------------------------------------------
 EMin=   -545.6949064248810     
 EMax=    545.6949064248810     
 MULLER method
 Integration of P has needed a max no. of loops 128
 Integration of P has needed a max no. of loops 128
 Integration of P has needed a max no. of loops 128
 Integration of P has needed a max no. of loops 128
 Integration of P has needed a max no. of loops 128
 Integration of P has needed a max no. of loops 128
 Integration of P has needed a max no. of loops 128
 -----------------------------------------------
 Fermi energy=  -9.75800  +/-  0.00000
 
 Number of alpha electrons:  152.50000
 Number of beta electrons:   152.50000
 Total number of electrons:   305.00000
 -----------------------------------------------
 RMSDP=3.80D-03 MaxDP=2.44D-01 DE= 4.63D-01 OVMax= 0.00D+00

 Cycle   3  Pass 1  IDiag  1:
 E= -1042.81777156714     Delta-E=       -0.387145223628 Rises=F Damp=F
 -------------------------------------------------------------------------
 Computing the density matrix at cycle:                        3
 -------------------------------------------------------------------------
 EMin=   -469.4539254331065     
 EMax=    469.4539254331065     
 MULLER method
 Integration of P has needed a max no. of loops 128
 Integration of P has needed a max no. of loops  32
 Integration of P has needed a max no. of loops  32
 Integration of P has needed a max no. of loops 128
 Integration of P has needed a max no. of loops 128
 Integration of P has needed a max no. of loops 128
 Integration of P has needed a max no. of loops 128
 Integration of P has needed a max no. of loops 128
 -----------------------------------------------
 Fermi energy=  -8.36758  +/-  0.00005
 
 Number of alpha electrons:  152.50000
 Number of beta electrons:   152.50000
 Total number of electrons:   305.00000
 -----------------------------------------------
 RMSDP=2.56D-04 MaxDP=7.12D-03 DE=-3.87D-01 OVMax= 0.00D+00

 Cycle   4  Pass 1  IDiag  1:
 E= -1042.78793678706     Delta-E=        0.029834780082 Rises=F Damp=F
 -------------------------------------------------------------------------
 Computing the density matrix at cycle:                        4
 -------------------------------------------------------------------------
 EMin=   -469.7348537649128     
 EMax=    469.7348537649128     
 MULLER method
 Integration of P has needed a max no. of loops 128
 Integration of P has needed a max no. of loops 128
 Integration of P has needed a max no. of loops 128
 Integration of P has needed a max no. of loops 128
 Integration of P has needed a max no. of loops 128
 -----------------------------------------------
 Fermi energy=  -8.32179  +/-  0.00000
 
 Number of alpha electrons:  152.50000
 Number of beta electrons:   152.50000
 Total number of electrons:   305.00000
 -----------------------------------------------
 Pulay kick .............
 RMSDP=5.23D-03 MaxDP=1.44D-01 DE= 2.98D-02 OVMax= 0.00D+00

 Cycle   5  Pass 1  IDiag  1:
 E= -1042.10864218614     Delta-E=        0.679294600927 Rises=F Damp=F
 -------------------------------------------------------------------------
 Computing the density matrix at cycle:                        5
 -------------------------------------------------------------------------
 EMin=   -483.6954582002721     
 EMax=    483.6954582002721     
 MULLER method
 Integration of P has needed a max no. of loops 128
 Integration of P has needed a max no. of loops 128
 Integration of P has needed a max no. of loops 128
 Integration of P has needed a max no. of loops 128
 Integration of P has needed a max no. of loops 128
 -----------------------------------------------
 Fermi energy=  -7.53669  +/-  0.00019
 
 Number of alpha electrons:  152.50000
 Number of beta electrons:   152.50000
 Total number of electrons:   305.00001
 -----------------------------------------------
 RMSDP=1.35D-04 MaxDP=1.02D-02 DE= 6.79D-01 OVMax= 0.00D+00

 Cycle   6  Pass 1  IDiag  1:
 E= -1042.09952955366     Delta-E=        0.009112632478 Rises=F Damp=F
 -------------------------------------------------------------------------
 Computing the density matrix at cycle:                        6
 -------------------------------------------------------------------------
 EMin=   -482.5011880025635     
 EMax=    482.5011880025635     
 MULLER method
 Integration of P has needed a max no. of loops 128
 Integration of P has needed a max no. of loops 128
 Integration of P has needed a max no. of loops 128
 Integration of P has needed a max no. of loops 128
 Integration of P has needed a max no. of loops 128
 -----------------------------------------------
 Fermi energy=  -7.53071  +/-  0.00000
 
 Number of alpha electrons:  152.50000
 Number of beta electrons:   152.50000
 Total number of electrons:   305.00000
 -----------------------------------------------
 RMSDP=1.27D-04 MaxDP=9.05D-03 DE= 9.11D-03 OVMax= 0.00D+00

 Cycle   7  Pass 1  IDiag  1:
 E= -1042.09048910006     Delta-E=        0.009040453595 Rises=F Damp=F
 -------------------------------------------------------------------------
 Computing the density matrix at cycle:                        7
 -------------------------------------------------------------------------
 EMin=   -481.4050906821971     
 EMax=    481.4050906821971     
 MULLER method
 Integration of P has needed a max no. of loops 128
 Integration of P has needed a max no. of loops 128
 Integration of P has needed a max no. of loops 128
 Integration of P has needed a max no. of loops 128
 Integration of P has needed a max no. of loops 128
 -----------------------------------------------
 Fermi energy=  -7.52442  +/-  0.00000
 
 Number of alpha electrons:  152.50000
 Number of beta electrons:   152.50000
 Total number of electrons:   305.00000
 -----------------------------------------------
 RMSDP=1.20D-04 MaxDP=7.98D-03 DE= 9.04D-03 OVMax= 0.00D+00

 Cycle   8  Pass 1  IDiag  1:
 E= -1042.08155255695     Delta-E=        0.008936543117 Rises=F Damp=F
 -------------------------------------------------------------------------
 Computing the density matrix at cycle:                        8
 -------------------------------------------------------------------------
 EMin=   -480.4008024366960     
 EMax=    480.4008024366960     
 MULLER method
 Integration of P has needed a max no. of loops 128
 Integration of P has needed a max no. of loops 128
 Integration of P has needed a max no. of loops 128
 Integration of P has needed a max no. of loops 128
 Integration of P has needed a max no. of loops 128
 -----------------------------------------------
 Fermi energy=  -7.51789  +/-  0.00000
 
 Number of alpha electrons:  152.50000
 Number of beta electrons:   152.50000
 Total number of electrons:   305.00000
 -----------------------------------------------
 RMSDP=1.14D-04 MaxDP=7.00D-03 DE= 8.94D-03 OVMax= 0.00D+00

 Cycle   9  Pass 1  IDiag  1:
 E= -1042.07274556907     Delta-E=        0.008806987879 Rises=F Damp=F
 -------------------------------------------------------------------------
 Computing the density matrix at cycle:                        9
 -------------------------------------------------------------------------
 EMin=   -479.4821038278687     
 EMax=    479.4821038278687     
 MULLER method
 Integration of P has needed a max no. of loops 128
 Integration of P has needed a max no. of loops 128
 Integration of P has needed a max no. of loops 128
 Integration of P has needed a max no. of loops 128
 Integration of P has needed a max no. of loops 128
 -----------------------------------------------
 Fermi energy=  -7.51116  +/-  0.00000
 
 Number of alpha electrons:  152.50000
 Number of beta electrons:   152.50000
 Total number of electrons:   305.00000
 -----------------------------------------------
 Pulay kick .............
 RMSDP=2.74D-03 MaxDP=6.27D-02 DE= 8.81D-03 OVMax= 0.00D+00

 Cycle  10  Pass 1  IDiag  1:
 E= -1041.79468819931     Delta-E=        0.278057369757 Rises=F Damp=F
 -------------------------------------------------------------------------
 Computing the density matrix at cycle:                       10
 -------------------------------------------------------------------------
 EMin=   -469.1349016126449     
 EMax=    469.1349016126449     
 MULLER method
