 Entering Gaussian System, Link 0=g09
 Input=Au9-Au4-Au-Au-Au4-Au9.gjf
 Output=Au9-Au4-Au-Au-Au4-Au9.log
 Initial command:
 /home/palacios/Gaussian09/intel/v.D01/g09/l1.exe "/scratch/palacios/Gau-29496.inp" -scrdir="/scratch/palacios/"
 Entering Link 1 = /home/palacios/Gaussian09/intel/v.D01/g09/l1.exe PID=     29497.
  
 Copyright (c) 1988,1990,1992,1993,1995,1998,2003,2009,2013,
            Gaussian, Inc.  All Rights Reserved.
  
 This is part of the Gaussian(R) 09 program.  It is based on
 the Gaussian(R) 03 system (copyright 2003, Gaussian, Inc.),
 the Gaussian(R) 98 system (copyright 1998, Gaussian, Inc.),
 the Gaussian(R) 94 system (copyright 1995, Gaussian, Inc.),
 the Gaussian 92(TM) system (copyright 1992, Gaussian, Inc.),
 the Gaussian 90(TM) system (copyright 1990, Gaussian, Inc.),
 the Gaussian 88(TM) system (copyright 1988, Gaussian, Inc.),
 the Gaussian 86(TM) system (copyright 1986, Carnegie Mellon
 University), and the Gaussian 82(TM) system (copyright 1983,
 Carnegie Mellon University). Gaussian is a federally registered
 trademark of Gaussian, Inc.
  
 This software contains proprietary and confidential information,
 including trade secrets, belonging to Gaussian, Inc.
  
 This software is provided under written license and may be
 used, copied, transmitted, or stored only in accord with that
 written license.
  
 The following legend is applicable only to US Government
 contracts under FAR:
  
                    RESTRICTED RIGHTS LEGEND
  
 Use, reproduction and disclosure by the US Government is
 subject to restrictions as set forth in subparagraphs (a)
 and (c) of the Commercial Computer Software - Restricted
 Rights clause in FAR 52.227-19.
  
 Gaussian, Inc.
 340 Quinnipiac St., Bldg. 40, Wallingford CT 06492
  
  
 ---------------------------------------------------------------
 Warning -- This program may not be used in any manner that
 competes with the business of Gaussian, Inc. or will provide
 assistance to any competitor of Gaussian, Inc.  The licensee
 of this program is prohibited from giving any competitor of
 Gaussian, Inc. access to this program.  By using this program,
 the user acknowledges that Gaussian, Inc. is engaged in the
 business of creating and licensing software in the field of
 computational chemistry and represents and warrants to the
 licensee that it is not a competitor of Gaussian, Inc. and that
 it will not use this program in any manner prohibited above.
 ---------------------------------------------------------------
  

 Cite this work as:
 Gaussian 09, Revision D.01,
 M. J. Frisch, G. W. Trucks, H. B. Schlegel, G. E. Scuseria, 
 M. A. Robb, J. R. Cheeseman, G. Scalmani, V. Barone, B. Mennucci, 
 G. A. Petersson, H. Nakatsuji, M. Caricato, X. Li, H. P. Hratchian, 
 A. F. Izmaylov, J. Bloino, G. Zheng, J. L. Sonnenberg, M. Hada, 
 M. Ehara, K. Toyota, R. Fukuda, J. Hasegawa, M. Ishida, T. Nakajima, 
 Y. Honda, O. Kitao, H. Nakai, T. Vreven, J. A. Montgomery, Jr., 
 J. E. Peralta, F. Ogliaro, M. Bearpark, J. J. Heyd, E. Brothers, 
 K. N. Kudin, V. N. Staroverov, T. Keith, R. Kobayashi, J. Normand, 
 K. Raghavachari, A. Rendell, J. C. Burant, S. S. Iyengar, J. Tomasi, 
 M. Cossi, N. Rega, J. M. Millam, M. Klene, J. E. Knox, J. B. Cross, 
 V. Bakken, C. Adamo, J. Jaramillo, R. Gomperts, R. E. Stratmann, 
 O. Yazyev, A. J. Austin, R. Cammi, C. Pomelli, J. W. Ochterski, 
 R. L. Martin, K. Morokuma, V. G. Zakrzewski, G. A. Voth, 
 P. Salvador, J. J. Dannenberg, S. Dapprich, A. D. Daniels, 
 O. Farkas, J. B. Foresman, J. V. Ortiz, J. Cioslowski, 
 and D. J. Fox, Gaussian, Inc., Wallingford CT, 2013.
 
 ******************************************
 Gaussian 09:  AS64L-G09RevD.01 24-Apr-2013
                 8-Jul-2022 
 ******************************************
 %mem=1gb
 %NProcShared=4
 Will use up to    4 processors via shared memory.
 %Subst L502 ../../bin
 %Subst L101 ../../bin
 -----------------------------------------------------------------
 #p lsda/gen pseudo=read pop=min Scf=(conver=5,maxcycle=100,dsymm)
 -----------------------------------------------------------------
 1/38=1/1;
 2/12=2,17=6,18=5,40=1/2;
 3/5=7,11=2,16=1,17=8,25=1,30=1,74=205/1,2,3;
 4//1;
 5/5=2,6=5,7=100,17=200,38=5/2;
 6/7=2,8=2,9=2,10=2,28=1/1;
 99/5=1,9=1/99;
 Leave Link    1 at Fri Jul  8 10:26:36 2022, MaxMem=   134217728 cpu:         0.1
 (Enter ../../bin/l101.exe)
 ---------------------
 Au9-Au4-Au-Au-Au4-Au9
 ---------------------
 Symbolic Z-matrix:
 Charge =  0 Multiplicity = 1
 Au                    0.        0.        7. 
 Au                   -2.        2.        7. 
 Au                    2.        2.        7. 
 Au                   -2.       -2.        7. 
 Au                    2.       -2.        7. 
 Au                   -4.        0.        7. 
 Au                    0.        4.        7. 
 Au                    4.        0.        7. 
 Au                    0.       -4.        7. 
 Au                    0.        2.        5. 
 Au                   -2.        0.        5. 
 Au                    0.       -2.        5. 
 Au                    2.        0.        5. 
 Au                    0.        0.        3. 
 Au                    0.        0.        0. 
 Au                    0.        2.       -2. 
 Au                   -2.        0.       -2. 
 Au                    0.       -2.       -2. 
 Au                    2.        0.       -2. 
 Au                    0.        0.       -4. 
 Au                   -2.        2.       -4. 
 Au                    2.        2.       -4. 
 Au                   -2.       -2.       -4. 
 Au                    2.       -2.       -4. 
 Au                   -4.        0.       -4. 
 Au                    0.        4.       -4. 
 Au                    4.        0.       -4. 
 Au                    0.       -4.       -4. 
 
 NAtoms=     28 NQM=       28 NQMF=       0 NMMI=      0 NMMIF=      0
                NMic=       0 NMicF=      0.
                    Isotopes and Nuclear Properties:
 (Nuclear quadrupole moments (NQMom) in fm**2, nuclear magnetic moments (NMagM)
  in nuclear magnetons)

  Atom         1           2           3           4           5           6           7           8           9          10
 IAtWgt=         197         197         197         197         197         197         197         197         197         197
 AtmWgt= 196.9666000 196.9666000 196.9666000 196.9666000 196.9666000 196.9666000 196.9666000 196.9666000 196.9666000 196.9666000
 NucSpn=           3           3           3           3           3           3           3           3           3           3
 AtZEff=   0.0000000   0.0000000   0.0000000   0.0000000   0.0000000   0.0000000   0.0000000   0.0000000   0.0000000   0.0000000
 NQMom=   54.7000000  54.7000000  54.7000000  54.7000000  54.7000000  54.7000000  54.7000000  54.7000000  54.7000000  54.7000000
 NMagM=    0.1481590   0.1481590   0.1481590   0.1481590   0.1481590   0.1481590   0.1481590   0.1481590   0.1481590   0.1481590
 AtZNuc=  79.0000000  79.0000000  79.0000000  79.0000000  79.0000000  79.0000000  79.0000000  79.0000000  79.0000000  79.0000000

  Atom        11          12          13          14          15          16          17          18          19          20
 IAtWgt=         197         197         197         197         197         197         197         197         197         197
 AtmWgt= 196.9666000 196.9666000 196.9666000 196.9666000 196.9666000 196.9666000 196.9666000 196.9666000 196.9666000 196.9666000
 NucSpn=           3           3           3           3           3           3           3           3           3           3
 AtZEff=   0.0000000   0.0000000   0.0000000   0.0000000   0.0000000   0.0000000   0.0000000   0.0000000   0.0000000   0.0000000
 NQMom=   54.7000000  54.7000000  54.7000000  54.7000000  54.7000000  54.7000000  54.7000000  54.7000000  54.7000000  54.7000000
 NMagM=    0.1481590   0.1481590   0.1481590   0.1481590   0.1481590   0.1481590   0.1481590   0.1481590   0.1481590   0.1481590
 AtZNuc=  79.0000000  79.0000000  79.0000000  79.0000000  79.0000000  79.0000000  79.0000000  79.0000000  79.0000000  79.0000000

  Atom        21          22          23          24          25          26          27          28
 IAtWgt=         197         197         197         197         197         197         197         197
 AtmWgt= 196.9666000 196.9666000 196.9666000 196.9666000 196.9666000 196.9666000 196.9666000 196.9666000
 NucSpn=           3           3           3           3           3           3           3           3
 AtZEff=   0.0000000   0.0000000   0.0000000   0.0000000   0.0000000   0.0000000   0.0000000   0.0000000
 NQMom=   54.7000000  54.7000000  54.7000000  54.7000000  54.7000000  54.7000000  54.7000000  54.7000000
 NMagM=    0.1481590   0.1481590   0.1481590   0.1481590   0.1481590   0.1481590   0.1481590   0.1481590
 AtZNuc=  79.0000000  79.0000000  79.0000000  79.0000000  79.0000000  79.0000000  79.0000000  79.0000000
 Leave Link  101 at Fri Jul  8 10:26:37 2022, MaxMem=   134217728 cpu:         0.3
 (Enter /home/palacios/Gaussian09/intel/v.D01/g09/l202.exe)
                          Input orientation:                          
 ---------------------------------------------------------------------
 Center     Atomic      Atomic             Coordinates (Angstroms)
 Number     Number       Type             X           Y           Z
 ---------------------------------------------------------------------
      1         79           0        0.000000    0.000000    7.000000
      2         79           0       -2.000000    2.000000    7.000000
      3         79           0        2.000000    2.000000    7.000000
      4         79           0       -2.000000   -2.000000    7.000000
      5         79           0        2.000000   -2.000000    7.000000
      6         79           0       -4.000000    0.000000    7.000000
      7         79           0        0.000000    4.000000    7.000000
      8         79           0        4.000000    0.000000    7.000000
      9         79           0        0.000000   -4.000000    7.000000
     10         79           0        0.000000    2.000000    5.000000
     11         79           0       -2.000000    0.000000    5.000000
     12         79           0        0.000000   -2.000000    5.000000
     13         79           0        2.000000    0.000000    5.000000
     14         79           0        0.000000    0.000000    3.000000
     15         79           0        0.000000    0.000000    0.000000
     16         79           0        0.000000    2.000000   -2.000000
     17         79           0       -2.000000    0.000000   -2.000000
     18         79           0        0.000000   -2.000000   -2.000000
     19         79           0        2.000000    0.000000   -2.000000
     20         79           0        0.000000    0.000000   -4.000000
     21         79           0       -2.000000    2.000000   -4.000000
     22         79           0        2.000000    2.000000   -4.000000
     23         79           0       -2.000000   -2.000000   -4.000000
     24         79           0        2.000000   -2.000000   -4.000000
     25         79           0       -4.000000    0.000000   -4.000000
     26         79           0        0.000000    4.000000   -4.000000
     27         79           0        4.000000    0.000000   -4.000000
     28         79           0        0.000000   -4.000000   -4.000000
 ---------------------------------------------------------------------
                    Distance matrix (angstroms):
                    1          2          3          4          5
     1  Au   0.000000
     2  Au   2.828427   0.000000
     3  Au   2.828427   4.000000   0.000000
     4  Au   2.828427   4.000000   5.656854   0.000000
     5  Au   2.828427   5.656854   4.000000   4.000000   0.000000
     6  Au   4.000000   2.828427   6.324555   2.828427   6.324555
     7  Au   4.000000   2.828427   2.828427   6.324555   6.324555
     8  Au   4.000000   6.324555   2.828427   6.324555   2.828427
     9  Au   4.000000   6.324555   6.324555   2.828427   2.828427
    10  Au   2.828427   2.828427   2.828427   4.898979   4.898979
    11  Au   2.828427   2.828427   4.898979   2.828427   4.898979
    12  Au   2.828427   4.898979   4.898979   2.828427   2.828427
    13  Au   2.828427   4.898979   2.828427   4.898979   2.828427
    14  Au   4.000000   4.898979   4.898979   4.898979   4.898979
    15  Au   7.000000   7.549834   7.549834   7.549834   7.549834
    16  Au   9.219544   9.219544   9.219544  10.049876  10.049876
    17  Au   9.219544   9.219544  10.049876   9.219544  10.049876
    18  Au   9.219544  10.049876  10.049876   9.219544   9.219544
    19  Au   9.219544  10.049876   9.219544  10.049876   9.219544
    20  Au  11.000000  11.357817  11.357817  11.357817  11.357817
    21  Au  11.357817  11.000000  11.704700  11.704700  12.369317
    22  Au  11.357817  11.704700  11.000000  12.369317  11.704700
    23  Au  11.357817  11.704700  12.369317  11.000000  11.704700
    24  Au  11.357817  12.369317  11.704700  11.704700  11.000000
    25  Au  11.704700  11.357817  12.688578  11.357817  12.688578
    26  Au  11.704700  11.357817  11.357817  12.688578  12.688578
    27  Au  11.704700  12.688578  11.357817  12.688578  11.357817
    28  Au  11.704700  12.688578  12.688578  11.357817  11.357817
                    6          7          8          9         10
     6  Au   0.000000
     7  Au   5.656854   0.000000
     8  Au   8.000000   5.656854   0.000000
     9  Au   5.656854   8.000000   5.656854   0.000000
    10  Au   4.898979   2.828427   4.898979   6.324555   0.000000
    11  Au   2.828427   4.898979   6.324555   4.898979   2.828427
    12  Au   4.898979   6.324555   4.898979   2.828427   4.000000
    13  Au   6.324555   4.898979   2.828427   4.898979   2.828427
    14  Au   5.656854   5.656854   5.656854   5.656854   2.828427
    15  Au   8.062258   8.062258   8.062258   8.062258   5.385165
    16  Au  10.049876   9.219544  10.049876  10.816654   7.000000
    17  Au   9.219544  10.049876  10.816654  10.049876   7.549834
    18  Au  10.049876  10.816654  10.049876   9.219544   8.062258
    19  Au  10.816654  10.049876   9.219544  10.049876   7.549834
    20  Au  11.704700  11.704700  11.704700  11.704700   9.219544
    21  Au  11.357817  11.357817  12.688578  12.688578   9.219544
    22  Au  12.688578  11.357817  11.357817  12.688578   9.219544
    23  Au  11.357817  12.688578  12.688578  11.357817  10.049876
    24  Au  12.688578  12.688578  11.357817  11.357817  10.049876
    25  Au  11.000000  12.369317  13.601471  12.369317  10.049876
    26  Au  12.369317  11.000000  12.369317  13.601471   9.219544
    27  Au  13.601471  12.369317  11.000000  12.369317  10.049876
    28  Au  12.369317  13.601471  12.369317  11.000000  10.816654
                   11         12         13         14         15
    11  Au   0.000000
    12  Au   2.828427   0.000000
    13  Au   4.000000   2.828427   0.000000
    14  Au   2.828427   2.828427   2.828427   0.000000
    15  Au   5.385165   5.385165   5.385165   3.000000   0.000000
    16  Au   7.549834   8.062258   7.549834   5.385165   2.828427
    17  Au   7.000000   7.549834   8.062258   5.385165   2.828427
    18  Au   7.549834   7.000000   7.549834   5.385165   2.828427
    19  Au   8.062258   7.549834   7.000000   5.385165   2.828427
    20  Au   9.219544   9.219544   9.219544   7.000000   4.000000
    21  Au   9.219544  10.049876  10.049876   7.549834   4.898979
    22  Au  10.049876  10.049876   9.219544   7.549834   4.898979
    23  Au   9.219544   9.219544  10.049876   7.549834   4.898979
    24  Au  10.049876   9.219544   9.219544   7.549834   4.898979
    25  Au   9.219544  10.049876  10.816654   8.062258   5.656854
    26  Au  10.049876  10.816654  10.049876   8.062258   5.656854
    27  Au  10.816654  10.049876   9.219544   8.062258   5.656854
    28  Au  10.049876   9.219544  10.049876   8.062258   5.656854
                   16         17         18         19         20
    16  Au   0.000000
    17  Au   2.828427   0.000000
    18  Au   4.000000   2.828427   0.000000
    19  Au   2.828427   4.000000   2.828427   0.000000
    20  Au   2.828427   2.828427   2.828427   2.828427   0.000000
    21  Au   2.828427   2.828427   4.898979   4.898979   2.828427
    22  Au   2.828427   4.898979   4.898979   2.828427   2.828427
    23  Au   4.898979   2.828427   2.828427   4.898979   2.828427
    24  Au   4.898979   4.898979   2.828427   2.828427   2.828427
    25  Au   4.898979   2.828427   4.898979   6.324555   4.000000
    26  Au   2.828427   4.898979   6.324555   4.898979   4.000000
    27  Au   4.898979   6.324555   4.898979   2.828427   4.000000
    28  Au   6.324555   4.898979   2.828427   4.898979   4.000000
                   21         22         23         24         25
    21  Au   0.000000
    22  Au   4.000000   0.000000
    23  Au   4.000000   5.656854   0.000000
    24  Au   5.656854   4.000000   4.000000   0.000000
    25  Au   2.828427   6.324555   2.828427   6.324555   0.000000
    26  Au   2.828427   2.828427   6.324555   6.324555   5.656854
    27  Au   6.324555   2.828427   6.324555   2.828427   8.000000
    28  Au   6.324555   6.324555   2.828427   2.828427   5.656854
                   26         27         28
    26  Au   0.000000
    27  Au   5.656854   0.000000
    28  Au   8.000000   5.656854   0.000000
 Stoichiometry    Au28
 Framework group  D4H[C4(AuAu.AuAu),2SGV(Au8),2SGD(Au4)]
 Deg. of freedom     8
 Full point group                 D4H     NOp  16
 Largest Abelian subgroup         D2H     NOp   8
 Largest concise Abelian subgroup D2H     NOp   8
                         Standard orientation:                         
 ---------------------------------------------------------------------
 Center     Atomic      Atomic             Coordinates (Angstroms)
 Number     Number       Type             X           Y           Z
 ---------------------------------------------------------------------
      1         79           0        0.000000    0.000000    5.500000
      2         79           0       -2.000000    2.000000    5.500000
      3         79           0        2.000000    2.000000    5.500000
      4         79           0       -2.000000   -2.000000    5.500000
      5         79           0        2.000000   -2.000000    5.500000
      6         79           0       -4.000000    0.000000    5.500000
      7         79           0        0.000000    4.000000    5.500000
      8         79           0        4.000000    0.000000    5.500000
      9         79           0        0.000000   -4.000000    5.500000
     10         79           0        0.000000    2.000000    3.500000
     11         79           0       -2.000000    0.000000    3.500000
     12         79           0        0.000000   -2.000000    3.500000
     13         79           0        2.000000    0.000000    3.500000
     14         79           0        0.000000    0.000000    1.500000
     15         79           0        0.000000    0.000000   -1.500000
     16         79           0        0.000000    2.000000   -3.500000
     17         79           0       -2.000000    0.000000   -3.500000
     18         79           0        0.000000   -2.000000   -3.500000
     19         79           0        2.000000    0.000000   -3.500000
     20         79           0        0.000000    0.000000   -5.500000
     21         79           0       -2.000000    2.000000   -5.500000
     22         79           0        2.000000    2.000000   -5.500000
     23         79           0       -2.000000   -2.000000   -5.500000
     24         79           0        2.000000   -2.000000   -5.500000
     25         79           0       -4.000000    0.000000   -5.500000
     26         79           0        0.000000    4.000000   -5.500000
     27         79           0        4.000000    0.000000   -5.500000
     28         79           0        0.000000   -4.000000   -5.500000
 ---------------------------------------------------------------------
 Rotational constants (GHZ):      0.0114545      0.0033805      0.0033805
 Leave Link  202 at Fri Jul  8 10:26:38 2022, MaxMem=   134217728 cpu:         0.1
 (Enter /home/palacios/Gaussian09/intel/v.D01/g09/l301.exe)
 General basis read from cards:  (5D, 7F)
 Centers:       1      2      3      4      5      6      7      8      9     10
 Centers:      11     12     13     14     15     16     17     18     19     20
 Centers:      21     22     23     24     25     26     27     28
 S 3 1.00
     Exponent=  4.4090000000D-01 Coefficients= -7.4780000000D-01
     Exponent=  2.6260000000D-01 Coefficients=  8.1760000000D-01
     Exponent=  6.1700000000D-02 Coefficients=  8.1130000000D-01
 P 3 1.00
     Exponent=  6.6420000000D-01 Coefficients= -4.5900000000D-02
     Exponent=  1.0730000000D-01 Coefficients=  3.7780000000D-01
     Exponent=  3.1900000000D-02 Coefficients=  7.2330000000D-01
 D 4 1.00
     Exponent=  1.3517000000D+00 Coefficients=  4.7870000000D-01
     Exponent=  5.1490000000D-01 Coefficients=  4.5820000000D-01
     Exponent=  1.9940000000D-01 Coefficients=  2.2030000000D-01
     Exponent=  7.7600000000D-02 Coefficients=  4.1200000000D-02
 ****
 ======================================================================================================
                                       Pseudopotential Parameters
 ======================================================================================================
  Center     Atomic      Valence      Angular      Power
  Number     Number     Electrons     Momentum     of R      Exponent        Coefficient   SO-Coeffient
 ======================================================================================================
    1         79           11
                                      G and up 
                                                     2        0.9657000       -0.98690200    0.00000000
                                                     2        2.2904000       -9.68630600    0.00000000
                                                     2        6.4383998      -32.57246399    0.00000000
                                                     2       16.3645992     -118.53087616    0.00000000
                                                     2       55.9892998     -286.25463867    0.00000000
                                                     1      171.1013947      -51.27423096    0.00000000
                                      S - G
                                                     2        1.2248000      -84.96929932    0.00000000
                                                     2        1.4336000      280.17764282    0.00000000
                                                     2        1.8929000     -354.64355469    0.00000000
                                                     2        2.6963000      334.33190918    0.00000000
                                                     2        3.9899001     -219.39260864    0.00000000
                                                     2        6.0054998      170.85874939    0.00000000
                                                     1       14.5825996       56.33872986    0.00000000
                                                     0       39.3106995        6.40929985    0.00000000
                                      P - G
                                                     2        0.9064000       -6.91190100    0.00000000
                                                     2        1.0311000       72.12546539    0.00000000
                                                     2        1.3287000     -114.97533417    0.00000000
                                                     2        1.9037000      123.61668396    0.00000000
                                                     2        2.8364000      -71.13571167    0.00000000
                                                     2        4.5883999       79.01660156    0.00000000
                                                     1       11.1981001       51.28700638    0.00000000
                                                     0       32.2957001        5.65198278    0.00000000
                                      D - G
                                                     2        0.2931000       -0.11365700    0.00000000
                                                     2        1.0301000       -2.40402508    0.00000000
                                                     2        2.0186000       62.58111572    0.00000000
                                                     2        3.4391999      255.44717407    0.00000000
                                                     2        5.1578999     -161.80647278    0.00000000
                                                     2        2.5149000     -175.77076721    0.00000000
                                                     1        8.0623999       63.62079239    0.00000000
                                                     0       41.0284996        6.75031996    0.00000000
                                      F - G
                                                     2        0.4335000      -47.60779953    0.00000000
                                                     2        0.5097000      176.31802368    0.00000000
                                                     2        0.5796000     -168.67689514    0.00000000
                                                     2        0.7711000       54.49244690    0.00000000
                                                     2        2.5934999       37.71539307    0.00000000
                                                     2        8.3907003      -24.13967514    0.00000000
                                                     1        6.9294000       49.16802216    0.00000000
                                                     0       22.2588997        4.75958586    0.00000000
    2         79           11
                                      G and up 
                                                     2        0.9657000       -0.98690200    0.00000000
                                                     2        2.2904000       -9.68630600    0.00000000
                                                     2        6.4383998      -32.57246399    0.00000000
                                                     2       16.3645992     -118.53087616    0.00000000
                                                     2       55.9892998     -286.25463867    0.00000000
                                                     1      171.1013947      -51.27423096    0.00000000
                                      S - G
                                                     2        1.2248000      -84.96929932    0.00000000
                                                     2        1.4336000      280.17764282    0.00000000
                                                     2        1.8929000     -354.64355469    0.00000000
                                                     2        2.6963000      334.33190918    0.00000000
                                                     2        3.9899001     -219.39260864    0.00000000
                                                     2        6.0054998      170.85874939    0.00000000
                                                     1       14.5825996       56.33872986    0.00000000
                                                     0       39.3106995        6.40929985    0.00000000
                                      P - G
                                                     2        0.9064000       -6.91190100    0.00000000
                                                     2        1.0311000       72.12546539    0.00000000
                                                     2        1.3287000     -114.97533417    0.00000000
                                                     2        1.9037000      123.61668396    0.00000000
                                                     2        2.8364000      -71.13571167    0.00000000
                                                     2        4.5883999       79.01660156    0.00000000
                                                     1       11.1981001       51.28700638    0.00000000
                                                     0       32.2957001        5.65198278    0.00000000
                                      D - G
                                                     2        0.2931000       -0.11365700    0.00000000
                                                     2        1.0301000       -2.40402508    0.00000000
                                                     2        2.0186000       62.58111572    0.00000000
                                                     2        3.4391999      255.44717407    0.00000000
                                                     2        5.1578999     -161.80647278    0.00000000
                                                     2        2.5149000     -175.77076721    0.00000000
                                                     1        8.0623999       63.62079239    0.00000000
                                                     0       41.0284996        6.75031996    0.00000000
                                      F - G
                                                     2        0.4335000      -47.60779953    0.00000000
                                                     2        0.5097000      176.31802368    0.00000000
                                                     2        0.5796000     -168.67689514    0.00000000
                                                     2        0.7711000       54.49244690    0.00000000
                                                     2        2.5934999       37.71539307    0.00000000
                                                     2        8.3907003      -24.13967514    0.00000000
                                                     1        6.9294000       49.16802216    0.00000000
                                                     0       22.2588997        4.75958586    0.00000000
    3         79           11
                                      G and up 
                                                     2        0.9657000       -0.98690200    0.00000000
                                                     2        2.2904000       -9.68630600    0.00000000
                                                     2        6.4383998      -32.57246399    0.00000000
                                                     2       16.3645992     -118.53087616    0.00000000
                                                     2       55.9892998     -286.25463867    0.00000000
                                                     1      171.1013947      -51.27423096    0.00000000
                                      S - G
                                                     2        1.2248000      -84.96929932    0.00000000
                                                     2        1.4336000      280.17764282    0.00000000
                                                     2        1.8929000     -354.64355469    0.00000000
                                                     2        2.6963000      334.33190918    0.00000000
                                                     2        3.9899001     -219.39260864    0.00000000
                                                     2        6.0054998      170.85874939    0.00000000
                                                     1       14.5825996       56.33872986    0.00000000
                                                     0       39.3106995        6.40929985    0.00000000
                                      P - G
                                                     2        0.9064000       -6.91190100    0.00000000
                                                     2        1.0311000       72.12546539    0.00000000
                                                     2        1.3287000     -114.97533417    0.00000000
                                                     2        1.9037000      123.61668396    0.00000000
                                                     2        2.8364000      -71.13571167    0.00000000
                                                     2        4.5883999       79.01660156    0.00000000
                                                     1       11.1981001       51.28700638    0.00000000
                                                     0       32.2957001        5.65198278    0.00000000
                                      D - G
                                                     2        0.2931000       -0.11365700    0.00000000
                                                     2        1.0301000       -2.40402508    0.00000000
                                                     2        2.0186000       62.58111572    0.00000000
                                                     2        3.4391999      255.44717407    0.00000000
                                                     2        5.1578999     -161.80647278    0.00000000
                                                     2        2.5149000     -175.77076721    0.00000000
                                                     1        8.0623999       63.62079239    0.00000000
                                                     0       41.0284996        6.75031996    0.00000000
                                      F - G
                                                     2        0.4335000      -47.60779953    0.00000000
                                                     2        0.5097000      176.31802368    0.00000000
                                                     2        0.5796000     -168.67689514    0.00000000
                                                     2        0.7711000       54.49244690    0.00000000
                                                     2        2.5934999       37.71539307    0.00000000
                                                     2        8.3907003      -24.13967514    0.00000000
                                                     1        6.9294000       49.16802216    0.00000000
                                                     0       22.2588997        4.75958586    0.00000000
    4         79           11
                                      G and up 
                                                     2        0.9657000       -0.98690200    0.00000000
                                                     2        2.2904000       -9.68630600    0.00000000
                                                     2        6.4383998      -32.57246399    0.00000000
                                                     2       16.3645992     -118.53087616    0.00000000
                                                     2       55.9892998     -286.25463867    0.00000000
                                                     1      171.1013947      -51.27423096    0.00000000
                                      S - G
                                                     2        1.2248000      -84.96929932    0.00000000
                                                     2        1.4336000      280.17764282    0.00000000
                                                     2        1.8929000     -354.64355469    0.00000000
                                                     2        2.6963000      334.33190918    0.00000000
                                                     2        3.9899001     -219.39260864    0.00000000
                                                     2        6.0054998      170.85874939    0.00000000
                                                     1       14.5825996       56.33872986    0.00000000
                                                     0       39.3106995        6.40929985    0.00000000
                                      P - G
                                                     2        0.9064000       -6.91190100    0.00000000
                                                     2        1.0311000       72.12546539    0.00000000
                                                     2        1.3287000     -114.97533417    0.00000000
                                                     2        1.9037000      123.61668396    0.00000000
                                                     2        2.8364000      -71.13571167    0.00000000
                                                     2        4.5883999       79.01660156    0.00000000
                                                     1       11.1981001       51.28700638    0.00000000
                                                     0       32.2957001        5.65198278    0.00000000
                                      D - G
                                                     2        0.2931000       -0.11365700    0.00000000
                                                     2        1.0301000       -2.40402508    0.00000000
                                                     2        2.0186000       62.58111572    0.00000000
                                                     2        3.4391999      255.44717407    0.00000000
                                                     2        5.1578999     -161.80647278    0.00000000
                                                     2        2.5149000     -175.77076721    0.00000000
                                                     1        8.0623999       63.62079239    0.00000000
                                                     0       41.0284996        6.75031996    0.00000000
                                      F - G
                                                     2        0.4335000      -47.60779953    0.00000000
                                                     2        0.5097000      176.31802368    0.00000000
                                                     2        0.5796000     -168.67689514    0.00000000
                                                     2        0.7711000       54.49244690    0.00000000
                                                     2        2.5934999       37.71539307    0.00000000
                                                     2        8.3907003      -24.13967514    0.00000000
                                                     1        6.9294000       49.16802216    0.00000000
                                                     0       22.2588997        4.75958586    0.00000000
    5         79           11
                                      G and up 
                                                     2        0.9657000       -0.98690200    0.00000000
                                                     2        2.2904000       -9.68630600    0.00000000
                                                     2        6.4383998      -32.57246399    0.00000000
                                                     2       16.3645992     -118.53087616    0.00000000
                                                     2       55.9892998     -286.25463867    0.00000000
                                                     1      171.1013947      -51.27423096    0.00000000
                                      S - G
                                                     2        1.2248000      -84.96929932    0.00000000
                                                     2        1.4336000      280.17764282    0.00000000
                                                     2        1.8929000     -354.64355469    0.00000000
                                                     2        2.6963000      334.33190918    0.00000000
                                                     2        3.9899001     -219.39260864    0.00000000
                                                     2        6.0054998      170.85874939    0.00000000
                                                     1       14.5825996       56.33872986    0.00000000
                                                     0       39.3106995        6.40929985    0.00000000
                                      P - G
                                                     2        0.9064000       -6.91190100    0.00000000
                                                     2        1.0311000       72.12546539    0.00000000
                                                     2        1.3287000     -114.97533417    0.00000000
                                                     2        1.9037000      123.61668396    0.00000000
                                                     2        2.8364000      -71.13571167    0.00000000
                                                     2        4.5883999       79.01660156    0.00000000
                                                     1       11.1981001       51.28700638    0.00000000
                                                     0       32.2957001        5.65198278    0.00000000
                                      D - G
                                                     2        0.2931000       -0.11365700    0.00000000
                                                     2        1.0301000       -2.40402508    0.00000000
                                                     2        2.0186000       62.58111572    0.00000000
                                                     2        3.4391999      255.44717407    0.00000000
                                                     2        5.1578999     -161.80647278    0.00000000
                                                     2        2.5149000     -175.77076721    0.00000000
                                                     1        8.0623999       63.62079239    0.00000000
                                                     0       41.0284996        6.75031996    0.00000000
                                      F - G
                                                     2        0.4335000      -47.60779953    0.00000000
                                                     2        0.5097000      176.31802368    0.00000000
                                                     2        0.5796000     -168.67689514    0.00000000
                                                     2        0.7711000       54.49244690    0.00000000
                                                     2        2.5934999       37.71539307    0.00000000
                                                     2        8.3907003      -24.13967514    0.00000000
                                                     1        6.9294000       49.16802216    0.00000000
                                                     0       22.2588997        4.75958586    0.00000000
    6         79           11
                                      G and up 
                                                     2        0.9657000       -0.98690200    0.00000000
                                                     2        2.2904000       -9.68630600    0.00000000
                                                     2        6.4383998      -32.57246399    0.00000000
                                                     2       16.3645992     -118.53087616    0.00000000
                                                     2       55.9892998     -286.25463867    0.00000000
                                                     1      171.1013947      -51.27423096    0.00000000
                                      S - G
                                                     2        1.2248000      -84.96929932    0.00000000
                                                     2        1.4336000      280.17764282    0.00000000
                                                     2        1.8929000     -354.64355469    0.00000000
                                                     2        2.6963000      334.33190918    0.00000000
                                                     2        3.9899001     -219.39260864    0.00000000
                                                     2        6.0054998      170.85874939    0.00000000
                                                     1       14.5825996       56.33872986    0.00000000
                                                     0       39.3106995        6.40929985    0.00000000
                                      P - G
                                                     2        0.9064000       -6.91190100    0.00000000
                                                     2        1.0311000       72.12546539    0.00000000
                                                     2        1.3287000     -114.97533417    0.00000000
                                                     2        1.9037000      123.61668396    0.00000000
                                                     2        2.8364000      -71.13571167    0.00000000
                                                     2        4.5883999       79.01660156    0.00000000
                                                     1       11.1981001       51.28700638    0.00000000
                                                     0       32.2957001        5.65198278    0.00000000
                                      D - G
                                                     2        0.2931000       -0.11365700    0.00000000
                                                     2        1.0301000       -2.40402508    0.00000000
                                                     2        2.0186000       62.58111572    0.00000000
                                                     2        3.4391999      255.44717407    0.00000000
                                                     2        5.1578999     -161.80647278    0.00000000
                                                     2        2.5149000     -175.77076721    0.00000000
                                                     1        8.0623999       63.62079239    0.00000000
                                                     0       41.0284996        6.75031996    0.00000000
                                      F - G
                                                     2        0.4335000      -47.60779953    0.00000000
                                                     2        0.5097000      176.31802368    0.00000000
                                                     2        0.5796000     -168.67689514    0.00000000
                                                     2        0.7711000       54.49244690    0.00000000
                                                     2        2.5934999       37.71539307    0.00000000
                                                     2        8.3907003      -24.13967514    0.00000000
                                                     1        6.9294000       49.16802216    0.00000000
                                                     0       22.2588997        4.75958586    0.00000000
    7         79           11
                                      G and up 
                                                     2        0.9657000       -0.98690200    0.00000000
                                                     2        2.2904000       -9.68630600    0.00000000
                                                     2        6.4383998      -32.57246399    0.00000000
                                                     2       16.3645992     -118.53087616    0.00000000
                                                     2       55.9892998     -286.25463867    0.00000000
                                                     1      171.1013947      -51.27423096    0.00000000
                                      S - G
                                                     2        1.2248000      -84.96929932    0.00000000
                                                     2        1.4336000      280.17764282    0.00000000
                                                     2        1.8929000     -354.64355469    0.00000000
                                                     2        2.6963000      334.33190918    0.00000000
                                                     2        3.9899001     -219.39260864    0.00000000
                                                     2        6.0054998      170.85874939    0.00000000
                                                     1       14.5825996       56.33872986    0.00000000
                                                     0       39.3106995        6.40929985    0.00000000
                                      P - G
                                                     2        0.9064000       -6.91190100    0.00000000
                                                     2        1.0311000       72.12546539    0.00000000
                                                     2        1.3287000     -114.97533417    0.00000000
                                                     2        1.9037000      123.61668396    0.00000000
                                                     2        2.8364000      -71.13571167    0.00000000
                                                     2        4.5883999       79.01660156    0.00000000
                                                     1       11.1981001       51.28700638    0.00000000
                                                     0       32.2957001        5.65198278    0.00000000
                                      D - G
                                                     2        0.2931000       -0.11365700    0.00000000
                                                     2        1.0301000       -2.40402508    0.00000000
                                                     2        2.0186000       62.58111572    0.00000000
                                                     2        3.4391999      255.44717407    0.00000000
                                                     2        5.1578999     -161.80647278    0.00000000
                                                     2        2.5149000     -175.77076721    0.00000000
                                                     1        8.0623999       63.62079239    0.00000000
                                                     0       41.0284996        6.75031996    0.00000000
                                      F - G
                                                     2        0.4335000      -47.60779953    0.00000000
                                                     2        0.5097000      176.31802368    0.00000000
                                                     2        0.5796000     -168.67689514    0.00000000
                                                     2        0.7711000       54.49244690    0.00000000
                                                     2        2.5934999       37.71539307    0.00000000
                                                     2        8.3907003      -24.13967514    0.00000000
                                                     1        6.9294000       49.16802216    0.00000000
                                                     0       22.2588997        4.75958586    0.00000000
    8         79           11
                                      G and up 
                                                     2        0.9657000       -0.98690200    0.00000000
                                                     2        2.2904000       -9.68630600    0.00000000
                                                     2        6.4383998      -32.57246399    0.00000000
                                                     2       16.3645992     -118.53087616    0.00000000
                                                     2       55.9892998     -286.25463867    0.00000000
                                                     1      171.1013947      -51.27423096    0.00000000
                                      S - G
                                                     2        1.2248000      -84.96929932    0.00000000
                                                     2        1.4336000      280.17764282    0.00000000
                                                     2        1.8929000     -354.64355469    0.00000000
                                                     2        2.6963000      334.33190918    0.00000000
                                                     2        3.9899001     -219.39260864    0.00000000
                                                     2        6.0054998      170.85874939    0.00000000
                                                     1       14.5825996       56.33872986    0.00000000
                                                     0       39.3106995        6.40929985    0.00000000
                                      P - G
                                                     2        0.9064000       -6.91190100    0.00000000
                                                     2        1.0311000       72.12546539    0.00000000
                                                     2        1.3287000     -114.97533417    0.00000000
                                                     2        1.9037000      123.61668396    0.00000000
                                                     2        2.8364000      -71.13571167    0.00000000
                                                     2        4.5883999       79.01660156    0.00000000
                                                     1       11.1981001       51.28700638    0.00000000
                                                     0       32.2957001        5.65198278    0.00000000
                                      D - G
                                                     2        0.2931000       -0.11365700    0.00000000
                                                     2        1.0301000       -2.40402508    0.00000000
                                                     2        2.0186000       62.58111572    0.00000000
                                                     2        3.4391999      255.44717407    0.00000000
                                                     2        5.1578999     -161.80647278    0.00000000
                                                     2        2.5149000     -175.77076721    0.00000000
                                                     1        8.0623999       63.62079239    0.00000000
                                                     0       41.0284996        6.75031996    0.00000000
                                      F - G
                                                     2        0.4335000      -47.60779953    0.00000000
                                                     2        0.5097000      176.31802368    0.00000000
                                                     2        0.5796000     -168.67689514    0.00000000
                                                     2        0.7711000       54.49244690    0.00000000
                                                     2        2.5934999       37.71539307    0.00000000
                                                     2        8.3907003      -24.13967514    0.00000000
                                                     1        6.9294000       49.16802216    0.00000000
                                                     0       22.2588997        4.75958586    0.00000000
    9         79           11
                                      G and up 
                                                     2        0.9657000       -0.98690200    0.00000000
                                                     2        2.2904000       -9.68630600    0.00000000
                                                     2        6.4383998      -32.57246399    0.00000000
                                                     2       16.3645992     -118.53087616    0.00000000
                                                     2       55.9892998     -286.25463867    0.00000000
                                                     1      171.1013947      -51.27423096    0.00000000
                                      S - G
                                                     2        1.2248000      -84.96929932    0.00000000
                                                     2        1.4336000      280.17764282    0.00000000
                                                     2        1.8929000     -354.64355469    0.00000000
                                                     2        2.6963000      334.33190918    0.00000000
                                                     2        3.9899001     -219.39260864    0.00000000
                                                     2        6.0054998      170.85874939    0.00000000
                                                     1       14.5825996       56.33872986    0.00000000
                                                     0       39.3106995        6.40929985    0.00000000
                                      P - G
                                                     2        0.9064000       -6.91190100    0.00000000
                                                     2        1.0311000       72.12546539    0.00000000
                                                     2        1.3287000     -114.97533417    0.00000000
                                                     2        1.9037000      123.61668396    0.00000000
                                                     2        2.8364000      -71.13571167    0.00000000
                                                     2        4.5883999       79.01660156    0.00000000
                                                     1       11.1981001       51.28700638    0.00000000
                                                     0       32.2957001        5.65198278    0.00000000
                                      D - G
                                                     2        0.2931000       -0.11365700    0.00000000
                                                     2        1.0301000       -2.40402508    0.00000000
                                                     2        2.0186000       62.58111572    0.00000000
                                                     2        3.4391999      255.44717407    0.00000000
                                                     2        5.1578999     -161.80647278    0.00000000
                                                     2        2.5149000     -175.77076721    0.00000000
                                                     1        8.0623999       63.62079239    0.00000000
                                                     0       41.0284996        6.75031996    0.00000000
                                      F - G
                                                     2        0.4335000      -47.60779953    0.00000000
                                                     2        0.5097000      176.31802368    0.00000000
                                                     2        0.5796000     -168.67689514    0.00000000
                                                     2        0.7711000       54.49244690    0.00000000
                                                     2        2.5934999       37.71539307    0.00000000
                                                     2        8.3907003      -24.13967514    0.00000000
                                                     1        6.9294000       49.16802216    0.00000000
                                                     0       22.2588997        4.75958586    0.00000000
   10         79           11
                                      G and up 
                                                     2        0.9657000       -0.98690200    0.00000000
                                                     2        2.2904000       -9.68630600    0.00000000
                                                     2        6.4383998      -32.57246399    0.00000000
                                                     2       16.3645992     -118.53087616    0.00000000
                                                     2       55.9892998     -286.25463867    0.00000000
                                                     1      171.1013947      -51.27423096    0.00000000
                                      S - G
                                                     2        1.2248000      -84.96929932    0.00000000
                                                     2        1.4336000      280.17764282    0.00000000
                                                     2        1.8929000     -354.64355469    0.00000000
                                                     2        2.6963000      334.33190918    0.00000000
                                                     2        3.9899001     -219.39260864    0.00000000
                                                     2        6.0054998      170.85874939    0.00000000
                                                     1       14.5825996       56.33872986    0.00000000
                                                     0       39.3106995        6.40929985    0.00000000
                                      P - G
                                                     2        0.9064000       -6.91190100    0.00000000
                                                     2        1.0311000       72.12546539    0.00000000
                                                     2        1.3287000     -114.97533417    0.00000000
                                                     2        1.9037000      123.61668396    0.00000000
                                                     2        2.8364000      -71.13571167    0.00000000
                                                     2        4.5883999       79.01660156    0.00000000
                                                     1       11.1981001       51.28700638    0.00000000
                                                     0       32.2957001        5.65198278    0.00000000
                                      D - G
                                                     2        0.2931000       -0.11365700    0.00000000
                                                     2        1.0301000       -2.40402508    0.00000000
                                                     2        2.0186000       62.58111572    0.00000000
                                                     2        3.4391999      255.44717407    0.00000000
                                                     2        5.1578999     -161.80647278    0.00000000
                                                     2        2.5149000     -175.77076721    0.00000000
                                                     1        8.0623999       63.62079239    0.00000000
                                                     0       41.0284996        6.75031996    0.00000000
                                      F - G
                                                     2        0.4335000      -47.60779953    0.00000000
                                                     2        0.5097000      176.31802368    0.00000000
                                                     2        0.5796000     -168.67689514    0.00000000
                                                     2        0.7711000       54.49244690    0.00000000
                                                     2        2.5934999       37.71539307    0.00000000
                                                     2        8.3907003      -24.13967514    0.00000000
                                                     1        6.9294000       49.16802216    0.00000000
                                                     0       22.2588997        4.75958586    0.00000000
   11         79           11
                                      G and up 
                                                     2        0.9657000       -0.98690200    0.00000000
                                                     2        2.2904000       -9.68630600    0.00000000
                                                     2        6.4383998      -32.57246399    0.00000000
                                                     2       16.3645992     -118.53087616    0.00000000
                                                     2       55.9892998     -286.25463867    0.00000000
                                                     1      171.1013947      -51.27423096    0.00000000
                                      S - G
                                                     2        1.2248000      -84.96929932    0.00000000
                                                     2        1.4336000      280.17764282    0.00000000
                                                     2        1.8929000     -354.64355469    0.00000000
                                                     2        2.6963000      334.33190918    0.00000000
                                                     2        3.9899001     -219.39260864    0.00000000
                                                     2        6.0054998      170.85874939    0.00000000
                                                     1       14.5825996       56.33872986    0.00000000
                                                     0       39.3106995        6.40929985    0.00000000
                                      P - G
                                                     2        0.9064000       -6.91190100    0.00000000
                                                     2        1.0311000       72.12546539    0.00000000
                                                     2        1.3287000     -114.97533417    0.00000000
                                                     2        1.9037000      123.61668396    0.00000000
                                                     2        2.8364000      -71.13571167    0.00000000
                                                     2        4.5883999       79.01660156    0.00000000
                                                     1       11.1981001       51.28700638    0.00000000
                                                     0       32.2957001        5.65198278    0.00000000
                                      D - G
                                                     2        0.2931000       -0.11365700    0.00000000
                                                     2        1.0301000       -2.40402508    0.00000000
                                                     2        2.0186000       62.58111572    0.00000000
                                                     2        3.4391999      255.44717407    0.00000000
                                                     2        5.1578999     -161.80647278    0.00000000
                                                     2        2.5149000     -175.77076721    0.00000000
                                                     1        8.0623999       63.62079239    0.00000000
                                                     0       41.0284996        6.75031996    0.00000000
                                      F - G
                                                     2        0.4335000      -47.60779953    0.00000000
                                                     2        0.5097000      176.31802368    0.00000000
                                                     2        0.5796000     -168.67689514    0.00000000
                                                     2        0.7711000       54.49244690    0.00000000
                                                     2        2.5934999       37.71539307    0.00000000
                                                     2        8.3907003      -24.13967514    0.00000000
                                                     1        6.9294000       49.16802216    0.00000000
                                                     0       22.2588997        4.75958586    0.00000000
   12         79           11
                                      G and up 
                                                     2        0.9657000       -0.98690200    0.00000000
                                                     2        2.2904000       -9.68630600    0.00000000
                                                     2        6.4383998      -32.57246399    0.00000000
                                                     2       16.3645992     -118.53087616    0.00000000
                                                     2       55.9892998     -286.25463867    0.00000000
                                                     1      171.1013947      -51.27423096    0.00000000
                                      S - G
                                                     2        1.2248000      -84.96929932    0.00000000
                                                     2        1.4336000      280.17764282    0.00000000
                                                     2        1.8929000     -354.64355469    0.00000000
                                                     2        2.6963000      334.33190918    0.00000000
                                                     2        3.9899001     -219.39260864    0.00000000
                                                     2        6.0054998      170.85874939    0.00000000
                                                     1       14.5825996       56.33872986    0.00000000
                                                     0       39.3106995        6.40929985    0.00000000
                                      P - G
                                                     2        0.9064000       -6.91190100    0.00000000
                                                     2        1.0311000       72.12546539    0.00000000
                                                     2        1.3287000     -114.97533417    0.00000000
                                                     2        1.9037000      123.61668396    0.00000000
                                                     2        2.8364000      -71.13571167    0.00000000
                                                     2        4.5883999       79.01660156    0.00000000
                                                     1       11.1981001       51.28700638    0.00000000
                                                     0       32.2957001        5.65198278    0.00000000
                                      D - G
                                                     2        0.2931000       -0.11365700    0.00000000
                                                     2        1.0301000       -2.40402508    0.00000000
                                                     2        2.0186000       62.58111572    0.00000000
                                                     2        3.4391999      255.44717407    0.00000000
                                                     2        5.1578999     -161.80647278    0.00000000
                                                     2        2.5149000     -175.77076721    0.00000000
                                                     1        8.0623999       63.62079239    0.00000000
                                                     0       41.0284996        6.75031996    0.00000000
                                      F - G
                                                     2        0.4335000      -47.60779953    0.00000000
                                                     2        0.5097000      176.31802368    0.00000000
                                                     2        0.5796000     -168.67689514    0.00000000
                                                     2        0.7711000       54.49244690    0.00000000
                                                     2        2.5934999       37.71539307    0.00000000
                                                     2        8.3907003      -24.13967514    0.00000000
                                                     1        6.9294000       49.16802216    0.00000000
                                                     0       22.2588997        4.75958586    0.00000000
   13         79           11
                                      G and up 
                                                     2        0.9657000       -0.98690200    0.00000000
                                                     2        2.2904000       -9.68630600    0.00000000
                                                     2        6.4383998      -32.57246399    0.00000000
                                                     2       16.3645992     -118.53087616    0.00000000
                                                     2       55.9892998     -286.25463867    0.00000000
                                                     1      171.1013947      -51.27423096    0.00000000
                                      S - G
                                                     2        1.2248000      -84.96929932    0.00000000
                                                     2        1.4336000      280.17764282    0.00000000
                                                     2        1.8929000     -354.64355469    0.00000000
                                                     2        2.6963000      334.33190918    0.00000000
                                                     2        3.9899001     -219.39260864    0.00000000
                                                     2        6.0054998      170.85874939    0.00000000
                                                     1       14.5825996       56.33872986    0.00000000
                                                     0       39.3106995        6.40929985    0.00000000
                                      P - G
                                                     2        0.9064000       -6.91190100    0.00000000
                                                     2        1.0311000       72.12546539    0.00000000
                                                     2        1.3287000     -114.97533417    0.00000000
                                                     2        1.9037000      123.61668396    0.00000000
                                                     2        2.8364000      -71.13571167    0.00000000
                                                     2        4.5883999       79.01660156    0.00000000
                                                     1       11.1981001       51.28700638    0.00000000
                                                     0       32.2957001        5.65198278    0.00000000
                                      D - G
                                                     2        0.2931000       -0.11365700    0.00000000
                                                     2        1.0301000       -2.40402508    0.00000000
                                                     2        2.0186000       62.58111572    0.00000000
                                                     2        3.4391999      255.44717407    0.00000000
                                                     2        5.1578999     -161.80647278    0.00000000
                                                     2        2.5149000     -175.77076721    0.00000000
                                                     1        8.0623999       63.62079239    0.00000000
                                                     0       41.0284996        6.75031996    0.00000000
                                      F - G
                                                     2        0.4335000      -47.60779953    0.00000000
                                                     2        0.5097000      176.31802368    0.00000000
                                                     2        0.5796000     -168.67689514    0.00000000
                                                     2        0.7711000       54.49244690    0.00000000
                                                     2        2.5934999       37.71539307    0.00000000
                                                     2        8.3907003      -24.13967514    0.00000000
                                                     1        6.9294000       49.16802216    0.00000000
                                                     0       22.2588997        4.75958586    0.00000000
   14         79           11
                                      G and up 
                                                     2        0.9657000       -0.98690200    0.00000000
                                                     2        2.2904000       -9.68630600    0.00000000
                                                     2        6.4383998      -32.57246399    0.00000000
                                                     2       16.3645992     -118.53087616    0.00000000
                                                     2       55.9892998     -286.25463867    0.00000000
                                                     1      171.1013947      -51.27423096    0.00000000
                                      S - G
                                                     2        1.2248000      -84.96929932    0.00000000
                                                     2        1.4336000      280.17764282    0.00000000
                                                     2        1.8929000     -354.64355469    0.00000000
                                                     2        2.6963000      334.33190918    0.00000000
                                                     2        3.9899001     -219.39260864    0.00000000
                                                     2        6.0054998      170.85874939    0.00000000
                                                     1       14.5825996       56.33872986    0.00000000
                                                     0       39.3106995        6.40929985    0.00000000
                                      P - G
                                                     2        0.9064000       -6.91190100    0.00000000
                                                     2        1.0311000       72.12546539    0.00000000
                                                     2        1.3287000     -114.97533417    0.00000000
                                                     2        1.9037000      123.61668396    0.00000000
                                                     2        2.8364000      -71.13571167    0.00000000
                                                     2        4.5883999       79.01660156    0.00000000
                                                     1       11.1981001       51.28700638    0.00000000
                                                     0       32.2957001        5.65198278    0.00000000
                                      D - G
                                                     2        0.2931000       -0.11365700    0.00000000
                                                     2        1.0301000       -2.40402508    0.00000000
                                                     2        2.0186000       62.58111572    0.00000000
                                                     2        3.4391999      255.44717407    0.00000000
                                                     2        5.1578999     -161.80647278    0.00000000
                                                     2        2.5149000     -175.77076721    0.00000000
                                                     1        8.0623999       63.62079239    0.00000000
                                                     0       41.0284996        6.75031996    0.00000000
                                      F - G
                                                     2        0.4335000      -47.60779953    0.00000000
[...]
                                                     2        4.5883999       79.01660156    0.00000000
                                                     1       11.1981001       51.28700638    0.00000000
                                                     0       32.2957001        5.65198278    0.00000000
                                      D - G
                                                     2        0.2931000       -0.11365700    0.00000000
                                                     2        1.0301000       -2.40402508    0.00000000
                                                     2        2.0186000       62.58111572    0.00000000
                                                     2        3.4391999      255.44717407    0.00000000
                                                     2        5.1578999     -161.80647278    0.00000000
                                                     2        2.5149000     -175.77076721    0.00000000
                                                     1        8.0623999       63.62079239    0.00000000
                                                     0       41.0284996        6.75031996    0.00000000
                                      F - G
                                                     2        0.4335000      -47.60779953    0.00000000
                                                     2        0.5097000      176.31802368    0.00000000
                                                     2        0.5796000     -168.67689514    0.00000000
                                                     2        0.7711000       54.49244690    0.00000000
                                                     2        2.5934999       37.71539307    0.00000000
                                                     2        8.3907003      -24.13967514    0.00000000
                                                     1        6.9294000       49.16802216    0.00000000
                                                     0       22.2588997        4.75958586    0.00000000
   28         79           11
                                      G and up 
                                                     2        0.9657000       -0.98690200    0.00000000
                                                     2        2.2904000       -9.68630600    0.00000000
                                                     2        6.4383998      -32.57246399    0.00000000
                                                     2       16.3645992     -118.53087616    0.00000000
                                                     2       55.9892998     -286.25463867    0.00000000
                                                     1      171.1013947      -51.27423096    0.00000000
                                      S - G
                                                     2        1.2248000      -84.96929932    0.00000000
                                                     2        1.4336000      280.17764282    0.00000000
                                                     2        1.8929000     -354.64355469    0.00000000
                                                     2        2.6963000      334.33190918    0.00000000
                                                     2        3.9899001     -219.39260864    0.00000000
                                                     2        6.0054998      170.85874939    0.00000000
                                                     1       14.5825996       56.33872986    0.00000000
                                                     0       39.3106995        6.40929985    0.00000000
                                      P - G
                                                     2        0.9064000       -6.91190100    0.00000000
                                                     2        1.0311000       72.12546539    0.00000000
                                                     2        1.3287000     -114.97533417    0.00000000
                                                     2        1.9037000      123.61668396    0.00000000
                                                     2        2.8364000      -71.13571167    0.00000000
                                                     2        4.5883999       79.01660156    0.00000000
                                                     1       11.1981001       51.28700638    0.00000000
                                                     0       32.2957001        5.65198278    0.00000000
                                      D - G
                                                     2        0.2931000       -0.11365700    0.00000000
                                                     2        1.0301000       -2.40402508    0.00000000
                                                     2        2.0186000       62.58111572    0.00000000
                                                     2        3.4391999      255.44717407    0.00000000
                                                     2        5.1578999     -161.80647278    0.00000000
                                                     2        2.5149000     -175.77076721    0.00000000
                                                     1        8.0623999       63.62079239    0.00000000
                                                     0       41.0284996        6.75031996    0.00000000
                                      F - G
                                                     2        0.4335000      -47.60779953    0.00000000
                                                     2        0.5097000      176.31802368    0.00000000
                                                     2        0.5796000     -168.67689514    0.00000000
                                                     2        0.7711000       54.49244690    0.00000000
                                                     2        2.5934999       37.71539307    0.00000000
                                                     2        8.3907003      -24.13967514    0.00000000
                                                     1        6.9294000       49.16802216    0.00000000
                                                     0       22.2588997        4.75958586    0.00000000
 ======================================================================================================
 Ernie: Thresh=  0.10000D-02 Tol=  0.10000D-05 Strict=F.
 There are    48 symmetry adapted cartesian basis functions of AG  symmetry.
 There are    24 symmetry adapted cartesian basis functions of B1G symmetry.
 There are    34 symmetry adapted cartesian basis functions of B2G symmetry.
 There are    34 symmetry adapted cartesian basis functions of B3G symmetry.
 There are    24 symmetry adapted cartesian basis functions of AU  symmetry.
 There are    48 symmetry adapted cartesian basis functions of B1U symmetry.
 There are    34 symmetry adapted cartesian basis functions of B2U symmetry.
 There are    34 symmetry adapted cartesian basis functions of B3U symmetry.
 There are    41 symmetry adapted basis functions of AG  symmetry.
 There are    23 symmetry adapted basis functions of B1G symmetry.
 There are    31 symmetry adapted basis functions of B2G symmetry.
 There are    31 symmetry adapted basis functions of B3G symmetry.
 There are    23 symmetry adapted basis functions of AU  symmetry.
 There are    41 symmetry adapted basis functions of B1U symmetry.
 There are    31 symmetry adapted basis functions of B2U symmetry.
 There are    31 symmetry adapted basis functions of B3U symmetry.
   252 basis functions,  1008 primitive gaussians,   280 cartesian basis functions
   154 alpha electrons      154 beta electrons
       nuclear repulsion energy      4319.0346858284 Hartrees.
 IExCor=  205 DFT=T Ex=S Corr=VWN ExCW=0 ScaHFX=  0.000000
 ScaDFX=  1.000000  1.000000  1.000000  1.000000 ScalE2=  1.000000  1.000000
 IRadAn=      0 IRanWt=     -1 IRanGd=            0 ICorTp=0 IEmpDi=  4
 NAtoms=   28 NActive=   28 NUniq=    5 SFac= 4.00D+00 NAtFMM=   60 NAOKFM=F Big=F
 Integral buffers will be    131072 words long.
 Raffenetti 2 integral format.
 Two-electron integral symmetry is turned on.
 Leave Link  301 at Fri Jul  8 10:26:41 2022, MaxMem=   134217728 cpu:         0.3
 (Enter /home/palacios/Gaussian09/intel/v.D01/g09/l302.exe)
 NPDir=0 NMtPBC=     1 NCelOv=     1 NCel=       1 NClECP=     1 NCelD=      1
         NCelK=      1 NCelE2=     1 NClLst=     1 CellRange=     0.0.
 One-electron integrals computed using PRISM.
 One-electron integral symmetry used in STVInt
  16 Symmetry operations used in ECPInt.
 ECPInt:  NShTT=    3570 NPrTT=   39676 LenC2=    3571 LenP2D=   34351.
 LDataN:  DoStor=T MaxTD1= 6 Len=  172
 GSVD:  received Info=                   1 from GESDD.
 GSVD:  received Info=                   1 from GESDD.
 GSVD:  received Info=                   1 from GESDD.
 GSVD:  received Info=                   1 from GESDD.
 Error in orthogonal basis= 8.83D-02 with   252 functions, increasing threshold to 2.00D-06.
 GSVD:  received Info=                   1 from GESDD.
 GSVD:  received Info=                   1 from GESDD.
 GSVD:  received Info=                   1 from GESDD.
 GSVD:  received Info=                   1 from GESDD.
 Error in orthogonal basis= 8.83D-02 with   252 functions, increasing threshold to 4.00D-06.
 GSVD:  received Info=                   1 from GESDD.
 GSVD:  received Info=                   1 from GESDD.
 GSVD:  received Info=                   1 from GESDD.
 GSVD:  received Info=                   1 from GESDD.
 Error in orthogonal basis= 8.83D-02 with   252 functions, increasing threshold to 8.00D-06.
 GSVD:  received Info=                   1 from GESDD.
 GSVD:  received Info=                   1 from GESDD.
 GSVD:  received Info=                   1 from GESDD.
 GSVD:  received Info=                   1 from GESDD.
 Error in orthogonal basis= 8.83D-02 with   252 functions, increasing threshold to 1.60D-05.
 GSVD:  received Info=                   1 from GESDD.
 GSVD:  received Info=                   1 from GESDD.
 GSVD:  received Info=                   1 from GESDD.
 GSVD:  received Info=                   1 from GESDD.
 Error in orthogonal basis= 8.83D-02 with   252 functions, increasing threshold to 3.20D-05.
 GSVD:  received Info=                   1 from GESDD.
 GSVD:  received Info=                   1 from GESDD.
 GSVD:  received Info=                   1 from GESDD.
 GSVD:  received Info=                   1 from GESDD.
 Error in orthogonal basis= 8.83D-02 with   252 functions, increasing threshold to 6.40D-05.
 GSVD:  received Info=                   1 from GESDD.
 GSVD:  received Info=                   1 from GESDD.
 GSVD:  received Info=                   1 from GESDD.
 GSVD:  received Info=                   1 from GESDD.
 Error in orthogonal basis= 8.83D-02 with   252 functions, increasing threshold to 1.28D-04.
 GSVD:  received Info=                   1 from GESDD.
 GSVD:  received Info=                   1 from GESDD.
 GSVD:  received Info=                   1 from GESDD.
 GSVD:  received Info=                   1 from GESDD.
 Error in orthogonal basis= 8.83D-02 with   252 functions, increasing threshold to 2.56D-04.
 GSVD:  received Info=                   1 from GESDD.
 GSVD:  received Info=                   1 from GESDD.
 GSVD:  received Info=                   1 from GESDD.
 GSVD:  received Info=                   1 from GESDD.
 Error in orthogonal basis= 8.83D-02 with   252 functions, increasing threshold to 5.12D-04.
 GSVD:  received Info=                   1 from GESDD.
 GSVD:  received Info=                   1 from GESDD.
 GSVD:  received Info=                   1 from GESDD.
 GSVD:  received Info=                   1 from GESDD.
 Error in orthogonal basis= 8.83D-02 with   252 functions, increasing threshold to 1.02D-03.
 GSVD:  received Info=                   1 from GESDD.
 GSVD:  received Info=                   1 from GESDD.
 GSVD:  received Info=                   1 from GESDD.
 GSVD:  received Info=                   1 from GESDD.
 Error in orthogonal basis= 8.83D-02 with   252 functions, increasing threshold to 2.05D-03.
 GSVD:  received Info=                   1 from GESDD.
 GSVD:  received Info=                   1 from GESDD.
 GSVD:  received Info=                   1 from GESDD.
 GSVD:  received Info=                   1 from GESDD.
 Error in orthogonal basis= 8.83D-02 with   252 functions, increasing threshold to 4.10D-03.
 GSVD:  received Info=                   1 from GESDD.
 GSVD:  received Info=                   1 from GESDD.
 GSVD:  received Info=                   1 from GESDD.
 GSVD:  received Info=                   1 from GESDD.
 Error in orthogonal basis= 8.83D-02 with   252 functions, increasing threshold to 8.19D-03.
 GSVD:  received Info=                   1 from GESDD.
 GSVD:  received Info=                   1 from GESDD.
 GSVD:  received Info=                   1 from GESDD.
 GSVD:  received Info=                   1 from GESDD.
 Error in orthogonal basis= 8.83D-02 with   252 functions, increasing threshold to 1.64D-02.
 GSVD:  received Info=                   1 from GESDD.
 GSVD:  received Info=                   1 from GESDD.
 GSVD:  received Info=                   1 from GESDD.
 GSVD:  received Info=                   1 from GESDD.
 Error in orthogonal basis= 8.83D-02 with   243 functions, increasing threshold to 3.28D-02.
 GSVD:  received Info=                   1 from GESDD.
 GSVD:  received Info=                   1 from GESDD.
 GSVD:  received Info=                   1 from GESDD.
 GSVD:  received Info=                   1 from GESDD.
 Error in orthogonal basis= 8.83D-02 with   237 functions, increasing threshold to 6.55D-02.
 GSVD:  received Info=                   1 from GESDD.
 GSVD:  received Info=                   1 from GESDD.
 GSVD:  received Info=                   1 from GESDD.
 GSVD:  received Info=                   1 from GESDD.
 Error in orthogonal basis= 1.70D-03 with   214 functions, increasing threshold to 1.31D-01.
 GSVD:  received Info=                   1 from GESDD.
 GSVD:  received Info=                   1 from GESDD.
 GSVD:  received Info=                   1 from GESDD.
 GSVD:  received Info=                   1 from GESDD.
 Error in orthogonal basis= 2.29D-04 with   197 functions, increasing threshold to 2.62D-01.
 GSVD:  received Info=                   1 from GESDD.
 GSVD:  received Info=                   1 from GESDD.
 GSVD:  received Info=                   1 from GESDD.
 GSVD:  received Info=                   1 from GESDD.
 Error in orthogonal basis= 2.29D-04 with   185 functions, increasing threshold to 5.24D-01.
 GSVD:  received Info=                   1 from GESDD.
 GSVD:  received Info=                   1 from GESDD.
 GSVD:  received Info=                   1 from GESDD.
 GSVD:  received Info=                   1 from GESDD.
 Error in orthogonal basis= 2.29D-04 with   134 functions, increasing threshold to 1.05D+00.
 GSVD:  received Info=                   1 from GESDD.
 GSVD:  received Info=                   1 from GESDD.
 GSVD:  received Info=                   1 from GESDD.
 GSVD:  received Info=                   1 from GESDD.
 Error in orthogonal basis= 4.63D-06 with    39 functions, increasing threshold to 2.10D+00.
 GSVD:  received Info=                   1 from GESDD.
 GSVD:  received Info=                   1 from GESDD.
 GSVD:  received Info=                   1 from GESDD.
 GSVD:  received Info=                   1 from GESDD.
 NBasis=   252 RedAO= T EigKep=  2.26D+00  NBF=    41    23    31    31    23    41    31    31
 NBsUse=    11 2.10D+00 EigRej=  1.96D+00 NBFU=     3     0     1     1     0     2     2     2
 Precomputing XC quadrature grid using
 IXCGrd= 4 IRadAn=           0 IRanWt=          -1 IRanGd=           0 AccXCQ= 0.00D+00.
 Defaulting to unpruned grid for atomic number  79.
 Defaulting to unpruned grid for atomic number  79.
 Defaulting to unpruned grid for atomic number  79.
 Defaulting to unpruned grid for atomic number  79.
 Generated NRdTot=       0 NPtTot=           0 NUsed=           0 NTot=          32
 NSgBfM=   280   280   280   280   280 MxSgAt=    28 MxSgA2=    28.
 Leave Link  302 at Fri Jul  8 10:26:53 2022, MaxMem=   134217728 cpu:        25.0
 (Enter /home/palacios/Gaussian09/intel/v.D01/g09/l303.exe)
 DipDrv:  MaxL=1.
 Leave Link  303 at Fri Jul  8 10:26:56 2022, MaxMem=   134217728 cpu:         0.2
 (Enter /home/palacios/Gaussian09/intel/v.D01/g09/l401.exe)
 ExpMin= 3.19D-02 ExpMax= 1.35D+00 ExpMxC= 1.35D+00 IAcc=3 IRadAn=         5 AccDes= 0.00D+00
 Harris functional with IExCor=  205 and IRadAn=       5 diagonalized for initial guess.
 HarFok:  IExCor=  205 AccDes= 0.00D+00 IRadAn=         5 IDoV= 1 UseB2=F ITyADJ=14
 ICtDFT=  3500011 ScaDFX=  1.000000  1.000000  1.000000  1.000000
 Defaulting to unpruned grid for atomic number  79.
 Defaulting to unpruned grid for atomic number  79.
 Defaulting to unpruned grid for atomic number  79.
 Defaulting to unpruned grid for atomic number  79.
 FoFCou: FMM=F IPFlag=           0 FMFlag=      100000 FMFlg1=           0
         NFxFlg=           0 DoJE=T BraDBF=F KetDBF=T FulRan=T
         wScrn=  0.000000 ICntrl=     500 IOpCl=  0 I1Cent=   200000004 NGrid=           0
         NMat0=    1 NMatS0=      1 NMatT0=    0 NMatD0=    1 NMtDS0=    0 NMtDT0=    0
 Petite list used in FoFCou.
 Harris En= -865.580300928844    
 JPrj=0 DoOrth=F DoCkMO=F.
 Initial guess orbital symmetries:
       Occupied  (A1G) (A2U) (A1G) (A2U) (EU) (EU) (EG) (EG) (A1G)
                 (EU) (EU) (          lFn?,(0! k5H_?        /9G)
                                                                                 
            )
  (A2U) (A1G) (A2U) (EU) (EU) (EG) (EG) (A1G) (EU) (EU) (          lFn?,(0
 ! k5H_?        /9G)
                                                                                 
            )
  (A2U) (A1G) (A2U) (EU) (EU) (EG) (EG) (A1G) (EU) (EU) (          lFn?,(0
 ! k5H_?        /9G)
                                                                                 
            )
  (A2U) (A1G) (A2U) (EU) (EU) (EG) (EG) (A1G) (EU) (EU) (          lFn?,(0
 ! k5H_?        /9G)
                                                                                 
            )
  (A2U) (A1G) (A2U) (EU) (EU) (EG) (EG) (A1G) (EU) (EU) (          lFn?,(0
 ! k5H_?        /9G)
                                                                                 
            )
  (A2U) (A1G) (A2U) (EU) (EU) (EG) (EG) (A1G) (EU) (EU) (          lFn?,(0
 ! k5H_?        /9G)
                                                                                 
            )
  (A2U) (A1G) (A2U) (EU) (EU) (EG) (EG) (A1G) (EU) (EU) (          lFn?,(0
 ! k5H_?        /9G)
                                                                                 
            )
  (A2U) (A1G) (A2U) (EU) (EU) (EG) (EG) (A1G) (EU) (EU) (          lFn?,(0
 ! k5H_?        /9G)
                                                                                 
            )
  (A2U) (A1G) (A2U) (EU) (EU) (EG) (EG) (A1G) (EU) (EU) (          lFn?,(0
 ! k5H_?        /9G)
                                                                                 
            )
  (A2U) (A1G) (A2U) (EU) (EU) (EG) (EG) (A1G) (EU) (EU) (          lFn?,(0
 ! k5H_?        /9G)
                                                                                 
            )
  (A2U) (A1G) (A2U) (EU) (EU) (EG) (EG) (A1G) (EU) (EU) (          lFn?,(0
 ! k5H_?        /9G)
                                                                                 
            )
  (A2U) (A1G) (A2U) (EU) (EU) (EG) (EG) (A1G) (EU) (EU) (          lFn?,(0
 ! k5H_?        /9G)
                                                                                 
            )
  (A2U) (A1G) (A2U) (EU) (EU) (EG) (EG) (A1G) (EU)
