 Entering Gaussian System, Link 0=g09
 Input=Au9-Au4-Au-Au-Au4-Au9.gjf
 Output=Au9-Au4-Au-Au-Au4-Au9.log
 Initial command:
 /home/palacios/gaussian/g09/l1.exe "/home/palacios/scratch/Gau-20831.inp" -scrdir="/home/palacios/scratch/"
 Entering Link 1 = /home/palacios/gaussian/g09/l1.exe PID=     20833.
  
 Copyright (c) 1988,1990,1992,1993,1995,1998,2003,2009,2013,
            Gaussian, Inc.  All Rights Reserved.
  
 This is part of the Gaussian(R) 09 program.  It is based on
 the Gaussian(R) 03 system (copyright 2003, Gaussian, Inc.),
 the Gaussian(R) 98 system (copyright 1998, Gaussian, Inc.),
 the Gaussian(R) 94 system (copyright 1995, Gaussian, Inc.),
 the Gaussian 92(TM) system (copyright 1992, Gaussian, Inc.),
 the Gaussian 90(TM) system (copyright 1990, Gaussian, Inc.),
 the Gaussian 88(TM) system (copyright 1988, Gaussian, Inc.),
 the Gaussian 86(TM) system (copyright 1986, Carnegie Mellon
 University), and the Gaussian 82(TM) system (copyright 1983,
 Carnegie Mellon University). Gaussian is a federally registered
 trademark of Gaussian, Inc.
  
 This software contains proprietary and confidential information,
 including trade secrets, belonging to Gaussian, Inc.
  
 This software is provided under written license and may be
 used, copied, transmitted, or stored only in accord with that
 written license.
  
 The following legend is applicable only to US Government
 contracts under FAR:
  
                    RESTRICTED RIGHTS LEGEND
  
 Use, reproduction and disclosure by the US Government is
 subject to restrictions as set forth in subparagraphs (a)
 and (c) of the Commercial Computer Software - Restricted
 Rights clause in FAR 52.227-19.
  
 Gaussian, Inc.
 340 Quinnipiac St., Bldg. 40, Wallingford CT 06492
  
  
 ---------------------------------------------------------------
 Warning -- This program may not be used in any manner that
 competes with the business of Gaussian, Inc. or will provide
 assistance to any competitor of Gaussian, Inc.  The licensee
 of this program is prohibited from giving any competitor of
 Gaussian, Inc. access to this program.  By using this program,
 the user acknowledges that Gaussian, Inc. is engaged in the
 business of creating and licensing software in the field of
 computational chemistry and represents and warrants to the
 licensee that it is not a competitor of Gaussian, Inc. and that
 it will not use this program in any manner prohibited above.
 ---------------------------------------------------------------
  

 Cite this work as:
 Gaussian 09, Revision D.01,
 M. J. Frisch, G. W. Trucks, H. B. Schlegel, G. E. Scuseria, 
 M. A. Robb, J. R. Cheeseman, G. Scalmani, V. Barone, B. Mennucci, 
 G. A. Petersson, H. Nakatsuji, M. Caricato, X. Li, H. P. Hratchian, 
 A. F. Izmaylov, J. Bloino, G. Zheng, J. L. Sonnenberg, M. Hada, 
 M. Ehara, K. Toyota, R. Fukuda, J. Hasegawa, M. Ishida, T. Nakajima, 
 Y. Honda, O. Kitao, H. Nakai, T. Vreven, J. A. Montgomery, Jr., 
 J. E. Peralta, F. Ogliaro, M. Bearpark, J. J. Heyd, E. Brothers, 
 K. N. Kudin, V. N. Staroverov, T. Keith, R. Kobayashi, J. Normand, 
 K. Raghavachari, A. Rendell, J. C. Burant, S. S. Iyengar, J. Tomasi, 
 M. Cossi, N. Rega, J. M. Millam, M. Klene, J. E. Knox, J. B. Cross, 
 V. Bakken, C. Adamo, J. Jaramillo, R. Gomperts, R. E. Stratmann, 
 O. Yazyev, A. J. Austin, R. Cammi, C. Pomelli, J. W. Ochterski, 
 R. L. Martin, K. Morokuma, V. G. Zakrzewski, G. A. Voth, 
 P. Salvador, J. J. Dannenberg, S. Dapprich, A. D. Daniels, 
 O. Farkas, J. B. Foresman, J. V. Ortiz, J. Cioslowski, 
 and D. J. Fox, Gaussian, Inc., Wallingford CT, 2013.
 
 ******************************************
 Gaussian 09:  ES64L-G09RevD.01 24-Apr-2013
                10-Feb-2016 
 ******************************************
 %mem=1gb
 %NProcShared=4
 Will use up to    4 processors via shared memory.
 %Subst L502 ../bin
 %Subst L101 ../bin
 -----------------------------------------------------------------
 #p lsda/gen pseudo=read pop=min Scf=(conver=5,maxcycle=100,dsymm)
 -----------------------------------------------------------------
 1/38=1/1;
 2/12=2,17=6,18=5,40=1/2;
 3/5=7,11=2,16=1,17=8,25=1,30=1,74=205/1,2,3;
 4//1;
 5/5=2,6=5,7=100,17=200,38=5/2;
 6/7=2,8=2,9=2,10=2,28=1/1;
 99/5=1,9=1/99;
 Leave Link    1 at Wed Feb 10 13:42:17 2016, MaxMem=   134217728 cpu:         0.2
 (Enter ../bin/l101.exe)
 ---------------------
 Au9-Au4-Au-Au-Au4-Au9
 ---------------------
 Symbolic Z-matrix:
 Charge =  0 Multiplicity = 1
 Au                    0.        0.        7. 
 Au                   -2.        2.        7. 
 Au                    2.        2.        7. 
 Au                   -2.       -2.        7. 
 Au                    2.       -2.        7. 
 Au                   -4.        0.        7. 
 Au                    0.        4.        7. 
 Au                    4.        0.        7. 
 Au                    0.       -4.        7. 
 Au                    0.        2.        5. 
 Au                   -2.        0.        5. 
 Au                    0.       -2.        5. 
 Au                    2.        0.        5. 
 Au                    0.        0.        3. 
 Au                    0.        0.        0. 
 Au                    0.        2.       -2. 
 Au                   -2.        0.       -2. 
 Au                    0.       -2.       -2. 
 Au                    2.        0.       -2. 
 Au                    0.        0.       -4. 
 Au                   -2.        2.       -4. 
 Au                    2.        2.       -4. 
 Au                   -2.       -2.       -4. 
 Au                    2.       -2.       -4. 
 Au                   -4.        0.       -4. 
 Au                    0.        4.       -4. 
 Au                    4.        0.       -4. 
 Au                    0.       -4.       -4. 
 
 NAtoms=     28 NQM=       28 NQMF=       0 NMMI=      0 NMMIF=      0
                NMic=       0 NMicF=      0.
                    Isotopes and Nuclear Properties:
 (Nuclear quadrupole moments (NQMom) in fm**2, nuclear magnetic moments (NMagM)
  in nuclear magnetons)

  Atom         1           2           3           4           5           6           7           8           9          10
 IAtWgt=         197         197         197         197         197         197         197         197         197         197
 AtmWgt= 196.9666000 196.9666000 196.9666000 196.9666000 196.9666000 196.9666000 196.9666000 196.9666000 196.9666000 196.9666000
 NucSpn=           3           3           3           3           3           3           3           3           3           3
 AtZEff=   0.0000000   0.0000000   0.0000000   0.0000000   0.0000000   0.0000000   0.0000000   0.0000000   0.0000000   0.0000000
 NQMom=   54.7000000  54.7000000  54.7000000  54.7000000  54.7000000  54.7000000  54.7000000  54.7000000  54.7000000  54.7000000
 NMagM=    0.1481590   0.1481590   0.1481590   0.1481590   0.1481590   0.1481590   0.1481590   0.1481590   0.1481590   0.1481590
 AtZNuc=  79.0000000  79.0000000  79.0000000  79.0000000  79.0000000  79.0000000  79.0000000  79.0000000  79.0000000  79.0000000

  Atom        11          12          13          14          15          16          17          18          19          20
 IAtWgt=         197         197         197         197         197         197         197         197         197         197
 AtmWgt= 196.9666000 196.9666000 196.9666000 196.9666000 196.9666000 196.9666000 196.9666000 196.9666000 196.9666000 196.9666000
 NucSpn=           3           3           3           3           3           3           3           3           3           3
 AtZEff=   0.0000000   0.0000000   0.0000000   0.0000000   0.0000000   0.0000000   0.0000000   0.0000000   0.0000000   0.0000000
 NQMom=   54.7000000  54.7000000  54.7000000  54.7000000  54.7000000  54.7000000  54.7000000  54.7000000  54.7000000  54.7000000
 NMagM=    0.1481590   0.1481590   0.1481590   0.1481590   0.1481590   0.1481590   0.1481590   0.1481590   0.1481590   0.1481590
 AtZNuc=  79.0000000  79.0000000  79.0000000  79.0000000  79.0000000  79.0000000  79.0000000  79.0000000  79.0000000  79.0000000

  Atom        21          22          23          24          25          26          27          28
 IAtWgt=         197         197         197         197         197         197         197         197
 AtmWgt= 196.9666000 196.9666000 196.9666000 196.9666000 196.9666000 196.9666000 196.9666000 196.9666000
 NucSpn=           3           3           3           3           3           3           3           3
 AtZEff=   0.0000000   0.0000000   0.0000000   0.0000000   0.0000000   0.0000000   0.0000000   0.0000000
 NQMom=   54.7000000  54.7000000  54.7000000  54.7000000  54.7000000  54.7000000  54.7000000  54.7000000
 NMagM=    0.1481590   0.1481590   0.1481590   0.1481590   0.1481590   0.1481590   0.1481590   0.1481590
 AtZNuc=  79.0000000  79.0000000  79.0000000  79.0000000  79.0000000  79.0000000  79.0000000  79.0000000
 Leave Link  101 at Wed Feb 10 13:42:17 2016, MaxMem=   134217728 cpu:         0.2
 (Enter /home/palacios/gaussian/g09/l202.exe)
                          Input orientation:                          
 ---------------------------------------------------------------------
 Center     Atomic      Atomic             Coordinates (Angstroms)
 Number     Number       Type             X           Y           Z
 ---------------------------------------------------------------------
      1         79           0        0.000000    0.000000    7.000000
      2         79           0       -2.000000    2.000000    7.000000
      3         79           0        2.000000    2.000000    7.000000
      4         79           0       -2.000000   -2.000000    7.000000
      5         79           0        2.000000   -2.000000    7.000000
      6         79           0       -4.000000    0.000000    7.000000
      7         79           0        0.000000    4.000000    7.000000
      8         79           0        4.000000    0.000000    7.000000
      9         79           0        0.000000   -4.000000    7.000000
     10         79           0        0.000000    2.000000    5.000000
     11         79           0       -2.000000    0.000000    5.000000
     12         79           0        0.000000   -2.000000    5.000000
     13         79           0        2.000000    0.000000    5.000000
     14         79           0        0.000000    0.000000    3.000000
     15         79           0        0.000000    0.000000    0.000000
     16         79           0        0.000000    2.000000   -2.000000
     17         79           0       -2.000000    0.000000   -2.000000
     18         79           0        0.000000   -2.000000   -2.000000
     19         79           0        2.000000    0.000000   -2.000000
     20         79           0        0.000000    0.000000   -4.000000
     21         79           0       -2.000000    2.000000   -4.000000
     22         79           0        2.000000    2.000000   -4.000000
     23         79           0       -2.000000   -2.000000   -4.000000
     24         79           0        2.000000   -2.000000   -4.000000
     25         79           0       -4.000000    0.000000   -4.000000
     26         79           0        0.000000    4.000000   -4.000000
     27         79           0        4.000000    0.000000   -4.000000
     28         79           0        0.000000   -4.000000   -4.000000
 ---------------------------------------------------------------------
                    Distance matrix (angstroms):
                    1          2          3          4          5
     1  Au   0.000000
     2  Au   2.828427   0.000000
     3  Au   2.828427   4.000000   0.000000
     4  Au   2.828427   4.000000   5.656854   0.000000
     5  Au   2.828427   5.656854   4.000000   4.000000   0.000000
     6  Au   4.000000   2.828427   6.324555   2.828427   6.324555
     7  Au   4.000000   2.828427   2.828427   6.324555   6.324555
     8  Au   4.000000   6.324555   2.828427   6.324555   2.828427
     9  Au   4.000000   6.324555   6.324555   2.828427   2.828427
    10  Au   2.828427   2.828427   2.828427   4.898979   4.898979
    11  Au   2.828427   2.828427   4.898979   2.828427   4.898979
    12  Au   2.828427   4.898979   4.898979   2.828427   2.828427
    13  Au   2.828427   4.898979   2.828427   4.898979   2.828427
    14  Au   4.000000   4.898979   4.898979   4.898979   4.898979
    15  Au   7.000000   7.549834   7.549834   7.549834   7.549834
    16  Au   9.219544   9.219544   9.219544  10.049876  10.049876
    17  Au   9.219544   9.219544  10.049876   9.219544  10.049876
    18  Au   9.219544  10.049876  10.049876   9.219544   9.219544
    19  Au   9.219544  10.049876   9.219544  10.049876   9.219544
    20  Au  11.000000  11.357817  11.357817  11.357817  11.357817
    21  Au  11.357817  11.000000  11.704700  11.704700  12.369317
    22  Au  11.357817  11.704700  11.000000  12.369317  11.704700
    23  Au  11.357817  11.704700  12.369317  11.000000  11.704700
    24  Au  11.357817  12.369317  11.704700  11.704700  11.000000
    25  Au  11.704700  11.357817  12.688578  11.357817  12.688578
    26  Au  11.704700  11.357817  11.357817  12.688578  12.688578
    27  Au  11.704700  12.688578  11.357817  12.688578  11.357817
    28  Au  11.704700  12.688578  12.688578  11.357817  11.357817
                    6          7          8          9         10
     6  Au   0.000000
     7  Au   5.656854   0.000000
     8  Au   8.000000   5.656854   0.000000
     9  Au   5.656854   8.000000   5.656854   0.000000
    10  Au   4.898979   2.828427   4.898979   6.324555   0.000000
    11  Au   2.828427   4.898979   6.324555   4.898979   2.828427
    12  Au   4.898979   6.324555   4.898979   2.828427   4.000000
    13  Au   6.324555   4.898979   2.828427   4.898979   2.828427
    14  Au   5.656854   5.656854   5.656854   5.656854   2.828427
    15  Au   8.062258   8.062258   8.062258   8.062258   5.385165
    16  Au  10.049876   9.219544  10.049876  10.816654   7.000000
    17  Au   9.219544  10.049876  10.816654  10.049876   7.549834
    18  Au  10.049876  10.816654  10.049876   9.219544   8.062258
    19  Au  10.816654  10.049876   9.219544  10.049876   7.549834
    20  Au  11.704700  11.704700  11.704700  11.704700   9.219544
    21  Au  11.357817  11.357817  12.688578  12.688578   9.219544
    22  Au  12.688578  11.357817  11.357817  12.688578   9.219544
    23  Au  11.357817  12.688578  12.688578  11.357817  10.049876
    24  Au  12.688578  12.688578  11.357817  11.357817  10.049876
    25  Au  11.000000  12.369317  13.601471  12.369317  10.049876
    26  Au  12.369317  11.000000  12.369317  13.601471   9.219544
    27  Au  13.601471  12.369317  11.000000  12.369317  10.049876
    28  Au  12.369317  13.601471  12.369317  11.000000  10.816654
                   11         12         13         14         15
    11  Au   0.000000
    12  Au   2.828427   0.000000
    13  Au   4.000000   2.828427   0.000000
    14  Au   2.828427   2.828427   2.828427   0.000000
    15  Au   5.385165   5.385165   5.385165   3.000000   0.000000
    16  Au   7.549834   8.062258   7.549834   5.385165   2.828427
    17  Au   7.000000   7.549834   8.062258   5.385165   2.828427
    18  Au   7.549834   7.000000   7.549834   5.385165   2.828427
    19  Au   8.062258   7.549834   7.000000   5.385165   2.828427
    20  Au   9.219544   9.219544   9.219544   7.000000   4.000000
    21  Au   9.219544  10.049876  10.049876   7.549834   4.898979
    22  Au  10.049876  10.049876   9.219544   7.549834   4.898979
    23  Au   9.219544   9.219544  10.049876   7.549834   4.898979
    24  Au  10.049876   9.219544   9.219544   7.549834   4.898979
    25  Au   9.219544  10.049876  10.816654   8.062258   5.656854
    26  Au  10.049876  10.816654  10.049876   8.062258   5.656854
    27  Au  10.816654  10.049876   9.219544   8.062258   5.656854
    28  Au  10.049876   9.219544  10.049876   8.062258   5.656854
                   16         17         18         19         20
    16  Au   0.000000
    17  Au   2.828427   0.000000
    18  Au   4.000000   2.828427   0.000000
    19  Au   2.828427   4.000000   2.828427   0.000000
    20  Au   2.828427   2.828427   2.828427   2.828427   0.000000
    21  Au   2.828427   2.828427   4.898979   4.898979   2.828427
    22  Au   2.828427   4.898979   4.898979   2.828427   2.828427
    23  Au   4.898979   2.828427   2.828427   4.898979   2.828427
    24  Au   4.898979   4.898979   2.828427   2.828427   2.828427
    25  Au   4.898979   2.828427   4.898979   6.324555   4.000000
    26  Au   2.828427   4.898979   6.324555   4.898979   4.000000
    27  Au   4.898979   6.324555   4.898979   2.828427   4.000000
    28  Au   6.324555   4.898979   2.828427   4.898979   4.000000
                   21         22         23         24         25
    21  Au   0.000000
    22  Au   4.000000   0.000000
    23  Au   4.000000   5.656854   0.000000
    24  Au   5.656854   4.000000   4.000000   0.000000
    25  Au   2.828427   6.324555   2.828427   6.324555   0.000000
    26  Au   2.828427   2.828427   6.324555   6.324555   5.656854
    27  Au   6.324555   2.828427   6.324555   2.828427   8.000000
    28  Au   6.324555   6.324555   2.828427   2.828427   5.656854
                   26         27         28
    26  Au   0.000000
    27  Au   5.656854   0.000000
    28  Au   8.000000   5.656854   0.000000
 Stoichiometry    Au28
 Framework group  D4H[C4(AuAu.AuAu),2SGV(Au8),2SGD(Au4)]
 Deg. of freedom     8
 Full point group                 D4H     NOp  16
 Largest Abelian subgroup         D2H     NOp   8
 Largest concise Abelian subgroup D2H     NOp   8
                         Standard orientation:                         
 ---------------------------------------------------------------------
 Center     Atomic      Atomic             Coordinates (Angstroms)
 Number     Number       Type             X           Y           Z
 ---------------------------------------------------------------------
      1         79           0        0.000000    0.000000    5.500000
      2         79           0       -2.000000    2.000000    5.500000
      3         79           0        2.000000    2.000000    5.500000
      4         79           0       -2.000000   -2.000000    5.500000
      5         79           0        2.000000   -2.000000    5.500000
      6         79           0       -4.000000    0.000000    5.500000
      7         79           0        0.000000    4.000000    5.500000
      8         79           0        4.000000    0.000000    5.500000
      9         79           0        0.000000   -4.000000    5.500000
     10         79           0        0.000000    2.000000    3.500000
     11         79           0       -2.000000    0.000000    3.500000
     12         79           0        0.000000   -2.000000    3.500000
     13         79           0        2.000000    0.000000    3.500000
     14         79           0        0.000000    0.000000    1.500000
     15         79           0        0.000000    0.000000   -1.500000
     16         79           0        0.000000    2.000000   -3.500000
     17         79           0       -2.000000    0.000000   -3.500000
     18         79           0        0.000000   -2.000000   -3.500000
     19         79           0        2.000000    0.000000   -3.500000
     20         79           0        0.000000    0.000000   -5.500000
     21         79           0       -2.000000    2.000000   -5.500000
     22         79           0        2.000000    2.000000   -5.500000
     23         79           0       -2.000000   -2.000000   -5.500000
     24         79           0        2.000000   -2.000000   -5.500000
     25         79           0       -4.000000    0.000000   -5.500000
     26         79           0        0.000000    4.000000   -5.500000
     27         79           0        4.000000    0.000000   -5.500000
     28         79           0        0.000000   -4.000000   -5.500000
 ---------------------------------------------------------------------
 Rotational constants (GHZ):      0.0114545      0.0033805      0.0033805
 Leave Link  202 at Wed Feb 10 13:42:17 2016, MaxMem=   134217728 cpu:         0.0
 (Enter /home/palacios/gaussian/g09/l301.exe)
 General basis read from cards:  (5D, 7F)
 Centers:       1      2      3      4      5      6      7      8      9     10
 Centers:      11     12     13     14     15     16     17     18     19     20
 Centers:      21     22     23     24     25     26     27     28
 S 3 1.00
     Exponent=  4.4090000000D-01 Coefficients= -7.4780000000D-01
     Exponent=  2.6260000000D-01 Coefficients=  8.1760000000D-01
     Exponent=  6.1700000000D-02 Coefficients=  8.1130000000D-01
 P 3 1.00
     Exponent=  6.6420000000D-01 Coefficients= -4.5900000000D-02
     Exponent=  1.0730000000D-01 Coefficients=  3.7780000000D-01
     Exponent=  3.1900000000D-02 Coefficients=  7.2330000000D-01
 D 4 1.00
     Exponent=  1.3517000000D+00 Coefficients=  4.7870000000D-01
     Exponent=  5.1490000000D-01 Coefficients=  4.5820000000D-01
     Exponent=  1.9940000000D-01 Coefficients=  2.2030000000D-01
     Exponent=  7.7600000000D-02 Coefficients=  4.1200000000D-02
 ****
 ======================================================================================================
                                       Pseudopotential Parameters
 ======================================================================================================
  Center     Atomic      Valence      Angular      Power
  Number     Number     Electrons     Momentum     of R      Exponent        Coefficient   SO-Coeffient
 ======================================================================================================
    1         79           11
                                      G and up 
                                                     2        0.9657000       -0.98690200    0.00000000
                                                     2        2.2904000       -9.68630600    0.00000000
                                                     2        6.4383998      -32.57246399    0.00000000
                                                     2       16.3645992     -118.53087616    0.00000000
                                                     2       55.9892998     -286.25463867    0.00000000
                                                     1      171.1013947      -51.27423096    0.00000000
                                      S - G
                                                     2        1.2248000      -84.96929932    0.00000000
                                                     2        1.4336000      280.17764282    0.00000000
                                                     2        1.8929000     -354.64355469    0.00000000
                                                     2        2.6963000      334.33190918    0.00000000
                                                     2        3.9899001     -219.39260864    0.00000000
                                                     2        6.0054998      170.85874939    0.00000000
                                                     1       14.5825996       56.33872986    0.00000000
                                                     0       39.3106995        6.40929985    0.00000000
                                      P - G
                                                     2        0.9064000       -6.91190100    0.00000000
                                                     2        1.0311000       72.12546539    0.00000000
                                                     2        1.3287000     -114.97533417    0.00000000
                                                     2        1.9037000      123.61668396    0.00000000
                                                     2        2.8364000      -71.13571167    0.00000000
                                                     2        4.5883999       79.01660156    0.00000000
                                                     1       11.1981001       51.28700638    0.00000000
                                                     0       32.2957001        5.65198278    0.00000000
                                      D - G
                                                     2        0.2931000       -0.11365700    0.00000000
                                                     2        1.0301000       -2.40402508    0.00000000
                                                     2        2.0186000       62.58111572    0.00000000
                                                     2        3.4391999      255.44717407    0.00000000
                                                     2        5.1578999     -161.80647278    0.00000000
                                                     2        2.5149000     -175.77076721    0.00000000
                                                     1        8.0623999       63.62079239    0.00000000
                                                     0       41.0284996        6.75031996    0.00000000
                                      F - G
                                                     2        0.4335000      -47.60779953    0.00000000
                                                     2        0.5097000      176.31802368    0.00000000
                                                     2        0.5796000     -168.67689514    0.00000000
                                                     2        0.7711000       54.49244690    0.00000000
                                                     2        2.5934999       37.71539307    0.00000000
                                                     2        8.3907003      -24.13967514    0.00000000
                                                     1        6.9294000       49.16802216    0.00000000
                                                     0       22.2588997        4.75958586    0.00000000
    2         79           11
                                      G and up 
                                                     2        0.9657000       -0.98690200    0.00000000
                                                     2        2.2904000       -9.68630600    0.00000000
                                                     2        6.4383998      -32.57246399    0.00000000
                                                     2       16.3645992     -118.53087616    0.00000000
                                                     2       55.9892998     -286.25463867    0.00000000
                                                     1      171.1013947      -51.27423096    0.00000000
                                      S - G
                                                     2        1.2248000      -84.96929932    0.00000000
                                                     2        1.4336000      280.17764282    0.00000000
                                                     2        1.8929000     -354.64355469    0.00000000
                                                     2        2.6963000      334.33190918    0.00000000
                                                     2        3.9899001     -219.39260864    0.00000000
                                                     2        6.0054998      170.85874939    0.00000000
                                                     1       14.5825996       56.33872986    0.00000000
                                                     0       39.3106995        6.40929985    0.00000000
                                      P - G
                                                     2        0.9064000       -6.91190100    0.00000000
                                                     2        1.0311000       72.12546539    0.00000000
                                                     2        1.3287000     -114.97533417    0.00000000
                                                     2        1.9037000      123.61668396    0.00000000
                                                     2        2.8364000      -71.13571167    0.00000000
                                                     2        4.5883999       79.01660156    0.00000000
                                                     1       11.1981001       51.28700638    0.00000000
                                                     0       32.2957001        5.65198278    0.00000000
                                      D - G
                                                     2        0.2931000       -0.11365700    0.00000000
                                                     2        1.0301000       -2.40402508    0.00000000
                                                     2        2.0186000       62.58111572    0.00000000
                                                     2        3.4391999      255.44717407    0.00000000
                                                     2        5.1578999     -161.80647278    0.00000000
                                                     2        2.5149000     -175.77076721    0.00000000
                                                     1        8.0623999       63.62079239    0.00000000
                                                     0       41.0284996        6.75031996    0.00000000
                                      F - G
                                                     2        0.4335000      -47.60779953    0.00000000
                                                     2        0.5097000      176.31802368    0.00000000
                                                     2        0.5796000     -168.67689514    0.00000000
                                                     2        0.7711000       54.49244690    0.00000000
                                                     2        2.5934999       37.71539307    0.00000000
                                                     2        8.3907003      -24.13967514    0.00000000
                                                     1        6.9294000       49.16802216    0.00000000
                                                     0       22.2588997        4.75958586    0.00000000
    3         79           11
                                      G and up 
                                                     2        0.9657000       -0.98690200    0.00000000
                                                     2        2.2904000       -9.68630600    0.00000000
                                                     2        6.4383998      -32.57246399    0.00000000
                                                     2       16.3645992     -118.53087616    0.00000000
                                                     2       55.9892998     -286.25463867    0.00000000
                                                     1      171.1013947      -51.27423096    0.00000000
                                      S - G
                                                     2        1.2248000      -84.96929932    0.00000000
                                                     2        1.4336000      280.17764282    0.00000000
                                                     2        1.8929000     -354.64355469    0.00000000
                                                     2        2.6963000      334.33190918    0.00000000
                                                     2        3.9899001     -219.39260864    0.00000000
                                                     2        6.0054998      170.85874939    0.00000000
                                                     1       14.5825996       56.33872986    0.00000000
                                                     0       39.3106995        6.40929985    0.00000000
                                      P - G
                                                     2        0.9064000       -6.91190100    0.00000000
                                                     2        1.0311000       72.12546539    0.00000000
                                                     2        1.3287000     -114.97533417    0.00000000
                                                     2        1.9037000      123.61668396    0.00000000
                                                     2        2.8364000      -71.13571167    0.00000000
                                                     2        4.5883999       79.01660156    0.00000000
                                                     1       11.1981001       51.28700638    0.00000000
                                                     0       32.2957001        5.65198278    0.00000000
                                      D - G
                                                     2        0.2931000       -0.11365700    0.00000000
                                                     2        1.0301000       -2.40402508    0.00000000
                                                     2        2.0186000       62.58111572    0.00000000
                                                     2        3.4391999      255.44717407    0.00000000
                                                     2        5.1578999     -161.80647278    0.00000000
                                                     2        2.5149000     -175.77076721    0.00000000
                                                     1        8.0623999       63.62079239    0.00000000
                                                     0       41.0284996        6.75031996    0.00000000
                                      F - G
                                                     2        0.4335000      -47.60779953    0.00000000
                                                     2        0.5097000      176.31802368    0.00000000
                                                     2        0.5796000     -168.67689514    0.00000000
                                                     2        0.7711000       54.49244690    0.00000000
                                                     2        2.5934999       37.71539307    0.00000000
                                                     2        8.3907003      -24.13967514    0.00000000
                                                     1        6.9294000       49.16802216    0.00000000
                                                     0       22.2588997        4.75958586    0.00000000
    4         79           11
                                      G and up 
                                                     2        0.9657000       -0.98690200    0.00000000
                                                     2        2.2904000       -9.68630600    0.00000000
                                                     2        6.4383998      -32.57246399    0.00000000
                                                     2       16.3645992     -118.53087616    0.00000000
                                                     2       55.9892998     -286.25463867    0.00000000
                                                     1      171.1013947      -51.27423096    0.00000000
                                      S - G
                                                     2        1.2248000      -84.96929932    0.00000000
                                                     2        1.4336000      280.17764282    0.00000000
                                                     2        1.8929000     -354.64355469    0.00000000
                                                     2        2.6963000      334.33190918    0.00000000
                                                     2        3.9899001     -219.39260864    0.00000000
                                                     2        6.0054998      170.85874939    0.00000000
                                                     1       14.5825996       56.33872986    0.00000000
                                                     0       39.3106995        6.40929985    0.00000000
                                      P - G
                                                     2        0.9064000       -6.91190100    0.00000000
                                                     2        1.0311000       72.12546539    0.00000000
                                                     2        1.3287000     -114.97533417    0.00000000
                                                     2        1.9037000      123.61668396    0.00000000
                                                     2        2.8364000      -71.13571167    0.00000000
                                                     2        4.5883999       79.01660156    0.00000000
                                                     1       11.1981001       51.28700638    0.00000000
                                                     0       32.2957001        5.65198278    0.00000000
                                      D - G
                                                     2        0.2931000       -0.11365700    0.00000000
                                                     2        1.0301000       -2.40402508    0.00000000
                                                     2        2.0186000       62.58111572    0.00000000
                                                     2        3.4391999      255.44717407    0.00000000
                                                     2        5.1578999     -161.80647278    0.00000000
                                                     2        2.5149000     -175.77076721    0.00000000
                                                     1        8.0623999       63.62079239    0.00000000
                                                     0       41.0284996        6.75031996    0.00000000
                                      F - G
                                                     2        0.4335000      -47.60779953    0.00000000
                                                     2        0.5097000      176.31802368    0.00000000
                                                     2        0.5796000     -168.67689514    0.00000000
                                                     2        0.7711000       54.49244690    0.00000000
                                                     2        2.5934999       37.71539307    0.00000000
                                                     2        8.3907003      -24.13967514    0.00000000
                                                     1        6.9294000       49.16802216    0.00000000
                                                     0       22.2588997        4.75958586    0.00000000
    5         79           11
                                      G and up 
                                                     2        0.9657000       -0.98690200    0.00000000
                                                     2        2.2904000       -9.68630600    0.00000000
                                                     2        6.4383998      -32.57246399    0.00000000
                                                     2       16.3645992     -118.53087616    0.00000000
                                                     2       55.9892998     -286.25463867    0.00000000
                                                     1      171.1013947      -51.27423096    0.00000000
                                      S - G
                                                     2        1.2248000      -84.96929932    0.00000000
                                                     2        1.4336000      280.17764282    0.00000000
                                                     2        1.8929000     -354.64355469    0.00000000
                                                     2        2.6963000      334.33190918    0.00000000
                                                     2        3.9899001     -219.39260864    0.00000000
                                                     2        6.0054998      170.85874939    0.00000000
                                                     1       14.5825996       56.33872986    0.00000000
                                                     0       39.3106995        6.40929985    0.00000000
                                      P - G
                                                     2        0.9064000       -6.91190100    0.00000000
                                                     2        1.0311000       72.12546539    0.00000000
                                                     2        1.3287000     -114.97533417    0.00000000
                                                     2        1.9037000      123.61668396    0.00000000
                                                     2        2.8364000      -71.13571167    0.00000000
                                                     2        4.5883999       79.01660156    0.00000000
                                                     1       11.1981001       51.28700638    0.00000000
                                                     0       32.2957001        5.65198278    0.00000000
                                      D - G
                                                     2        0.2931000       -0.11365700    0.00000000
                                                     2        1.0301000       -2.40402508    0.00000000
                                                     2        2.0186000       62.58111572    0.00000000
                                                     2        3.4391999      255.44717407    0.00000000
                                                     2        5.1578999     -161.80647278    0.00000000
                                                     2        2.5149000     -175.77076721    0.00000000
                                                     1        8.0623999       63.62079239    0.00000000
                                                     0       41.0284996        6.75031996    0.00000000
                                      F - G
                                                     2        0.4335000      -47.60779953    0.00000000
                                                     2        0.5097000      176.31802368    0.00000000
                                                     2        0.5796000     -168.67689514    0.00000000
                                                     2        0.7711000       54.49244690    0.00000000
                                                     2        2.5934999       37.71539307    0.00000000
                                                     2        8.3907003      -24.13967514    0.00000000
                                                     1        6.9294000       49.16802216    0.00000000
                                                     0       22.2588997        4.75958586    0.00000000
    6         79           11
                                      G and up 
                                                     2        0.9657000       -0.98690200    0.00000000
                                                     2        2.2904000       -9.68630600    0.00000000
                                                     2        6.4383998      -32.57246399    0.00000000
                                                     2       16.3645992     -118.53087616    0.00000000
                                                     2       55.9892998     -286.25463867    0.00000000
                                                     1      171.1013947      -51.27423096    0.00000000
                                      S - G
                                                     2        1.2248000      -84.96929932    0.00000000
                                                     2        1.4336000      280.17764282    0.00000000
                                                     2        1.8929000     -354.64355469    0.00000000
                                                     2        2.6963000      334.33190918    0.00000000
                                                     2        3.9899001     -219.39260864    0.00000000
                                                     2        6.0054998      170.85874939    0.00000000
                                                     1       14.5825996       56.33872986    0.00000000
                                                     0       39.3106995        6.40929985    0.00000000
                                      P - G
                                                     2        0.9064000       -6.91190100    0.00000000
                                                     2        1.0311000       72.12546539    0.00000000
                                                     2        1.3287000     -114.97533417    0.00000000
                                                     2        1.9037000      123.61668396    0.00000000
                                                     2        2.8364000      -71.13571167    0.00000000
                                                     2        4.5883999       79.01660156    0.00000000
                                                     1       11.1981001       51.28700638    0.00000000
                                                     0       32.2957001        5.65198278    0.00000000
                                      D - G
                                                     2        0.2931000       -0.11365700    0.00000000
                                                     2        1.0301000       -2.40402508    0.00000000
                                                     2        2.0186000       62.58111572    0.00000000
                                                     2        3.4391999      255.44717407    0.00000000
                                                     2        5.1578999     -161.80647278    0.00000000
                                                     2        2.5149000     -175.77076721    0.00000000
                                                     1        8.0623999       63.62079239    0.00000000
                                                     0       41.0284996        6.75031996    0.00000000
                                      F - G
                                                     2        0.4335000      -47.60779953    0.00000000
                                                     2        0.5097000      176.31802368    0.00000000
                                                     2        0.5796000     -168.67689514    0.00000000
                                                     2        0.7711000       54.49244690    0.00000000
                                                     2        2.5934999       37.71539307    0.00000000
                                                     2        8.3907003      -24.13967514    0.00000000
                                                     1        6.9294000       49.16802216    0.00000000
                                                     0       22.2588997        4.75958586    0.00000000
    7         79           11
                                      G and up 
                                                     2        0.9657000       -0.98690200    0.00000000
                                                     2        2.2904000       -9.68630600    0.00000000
                                                     2        6.4383998      -32.57246399    0.00000000
                                                     2       16.3645992     -118.53087616    0.00000000
                                                     2       55.9892998     -286.25463867    0.00000000
                                                     1      171.1013947      -51.27423096    0.00000000
                                      S - G
                                                     2        1.2248000      -84.96929932    0.00000000
                                                     2        1.4336000      280.17764282    0.00000000
                                                     2        1.8929000     -354.64355469    0.00000000
                                                     2        2.6963000      334.33190918    0.00000000
                                                     2        3.9899001     -219.39260864    0.00000000
                                                     2        6.0054998      170.85874939    0.00000000
                                                     1       14.5825996       56.33872986    0.00000000
                                                     0       39.3106995        6.40929985    0.00000000
                                      P - G
                                                     2        0.9064000       -6.91190100    0.00000000
                                                     2        1.0311000       72.12546539    0.00000000
                                                     2        1.3287000     -114.97533417    0.00000000
                                                     2        1.9037000      123.61668396    0.00000000
                                                     2        2.8364000      -71.13571167    0.00000000
                                                     2        4.5883999       79.01660156    0.00000000
                                                     1       11.1981001       51.28700638    0.00000000
                                                     0       32.2957001        5.65198278    0.00000000
                                      D - G
                                                     2        0.2931000       -0.11365700    0.00000000
                                                     2        1.0301000       -2.40402508    0.00000000
                                                     2        2.0186000       62.58111572    0.00000000
                                                     2        3.4391999      255.44717407    0.00000000
                                                     2        5.1578999     -161.80647278    0.00000000
                                                     2        2.5149000     -175.77076721    0.00000000
                                                     1        8.0623999       63.62079239    0.00000000
                                                     0       41.0284996        6.75031996    0.00000000
                                      F - G
                                                     2        0.4335000      -47.60779953    0.00000000
                                                     2        0.5097000      176.31802368    0.00000000
                                                     2        0.5796000     -168.67689514    0.00000000
                                                     2        0.7711000       54.49244690    0.00000000
                                                     2        2.5934999       37.71539307    0.00000000
                                                     2        8.3907003      -24.13967514    0.00000000
                                                     1        6.9294000       49.16802216    0.00000000
                                                     0       22.2588997        4.75958586    0.00000000
    8         79           11
                                      G and up 
                                                     2        0.9657000       -0.98690200    0.00000000
                                                     2        2.2904000       -9.68630600    0.00000000
                                                     2        6.4383998      -32.57246399    0.00000000
                                                     2       16.3645992     -118.53087616    0.00000000
                                                     2       55.9892998     -286.25463867    0.00000000
                                                     1      171.1013947      -51.27423096    0.00000000
                                      S - G
                                                     2        1.2248000      -84.96929932    0.00000000
                                                     2        1.4336000      280.17764282    0.00000000
                                                     2        1.8929000     -354.64355469    0.00000000
                                                     2        2.6963000      334.33190918    0.00000000
                                                     2        3.9899001     -219.39260864    0.00000000
                                                     2        6.0054998      170.85874939    0.00000000
                                                     1       14.5825996       56.33872986    0.00000000
                                                     0       39.3106995        6.40929985    0.00000000
                                      P - G
                                                     2        0.9064000       -6.91190100    0.00000000
                                                     2        1.0311000       72.12546539    0.00000000
                                                     2        1.3287000     -114.97533417    0.00000000
                                                     2        1.9037000      123.61668396    0.00000000
                                                     2        2.8364000      -71.13571167    0.00000000
                                                     2        4.5883999       79.01660156    0.00000000
                                                     1       11.1981001       51.28700638    0.00000000
                                                     0       32.2957001        5.65198278    0.00000000
                                      D - G
                                                     2        0.2931000       -0.11365700    0.00000000
                                                     2        1.0301000       -2.40402508    0.00000000
                                                     2        2.0186000       62.58111572    0.00000000
                                                     2        3.4391999      255.44717407    0.00000000
                                                     2        5.1578999     -161.80647278    0.00000000
                                                     2        2.5149000     -175.77076721    0.00000000
                                                     1        8.0623999       63.62079239    0.00000000
                                                     0       41.0284996        6.75031996    0.00000000
                                      F - G
                                                     2        0.4335000      -47.60779953    0.00000000
                                                     2        0.5097000      176.31802368    0.00000000
                                                     2        0.5796000     -168.67689514    0.00000000
                                                     2        0.7711000       54.49244690    0.00000000
                                                     2        2.5934999       37.71539307    0.00000000
                                                     2        8.3907003      -24.13967514    0.00000000
                                                     1        6.9294000       49.16802216    0.00000000
                                                     0       22.2588997        4.75958586    0.00000000
    9         79           11
                                      G and up 
                                                     2        0.9657000       -0.98690200    0.00000000
                                                     2        2.2904000       -9.68630600    0.00000000
                                                     2        6.4383998      -32.57246399    0.00000000
                                                     2       16.3645992     -118.53087616    0.00000000
                                                     2       55.9892998     -286.25463867    0.00000000
                                                     1      171.1013947      -51.27423096    0.00000000
                                      S - G
                                                     2        1.2248000      -84.96929932    0.00000000
                                                     2        1.4336000      280.17764282    0.00000000
                                                     2        1.8929000     -354.64355469    0.00000000
                                                     2        2.6963000      334.33190918    0.00000000
                                                     2        3.9899001     -219.39260864    0.00000000
                                                     2        6.0054998      170.85874939    0.00000000
                                                     1       14.5825996       56.33872986    0.00000000
                                                     0       39.3106995        6.40929985    0.00000000
                                      P - G
                                                     2        0.9064000       -6.91190100    0.00000000
                                                     2        1.0311000       72.12546539    0.00000000
                                                     2        1.3287000     -114.97533417    0.00000000
                                                     2        1.9037000      123.61668396    0.00000000
                                                     2        2.8364000      -71.13571167    0.00000000
                                                     2        4.5883999       79.01660156    0.00000000
                                                     1       11.1981001       51.28700638    0.00000000
                                                     0       32.2957001        5.65198278    0.00000000
                                      D - G
                                                     2        0.2931000       -0.11365700    0.00000000
                                                     2        1.0301000       -2.40402508    0.00000000
                                                     2        2.0186000       62.58111572    0.00000000
                                                     2        3.4391999      255.44717407    0.00000000
                                                     2        5.1578999     -161.80647278    0.00000000
                                                     2        2.5149000     -175.77076721    0.00000000
                                                     1        8.0623999       63.62079239    0.00000000
                                                     0       41.0284996        6.75031996    0.00000000
                                      F - G
                                                     2        0.4335000      -47.60779953    0.00000000
                                                     2        0.5097000      176.31802368    0.00000000
                                                     2        0.5796000     -168.67689514    0.00000000
                                                     2        0.7711000       54.49244690    0.00000000
                                                     2        2.5934999       37.71539307    0.00000000
                                                     2        8.3907003      -24.13967514    0.00000000
                                                     1        6.9294000       49.16802216    0.00000000
                                                     0       22.2588997        4.75958586    0.00000000
   10         79           11
                                      G and up 
                                                     2        0.9657000       -0.98690200    0.00000000
                                                     2        2.2904000       -9.68630600    0.00000000
                                                     2        6.4383998      -32.57246399    0.00000000
                                                     2       16.3645992     -118.53087616    0.00000000
                                                     2       55.9892998     -286.25463867    0.00000000
                                                     1      171.1013947      -51.27423096    0.00000000
                                      S - G
                                                     2        1.2248000      -84.96929932    0.00000000
                                                     2        1.4336000      280.17764282    0.00000000
                                                     2        1.8929000     -354.64355469    0.00000000
                                                     2        2.6963000      334.33190918    0.00000000
                                                     2        3.9899001     -219.39260864    0.00000000
                                                     2        6.0054998      170.85874939    0.00000000
                                                     1       14.5825996       56.33872986    0.00000000
                                                     0       39.3106995        6.40929985    0.00000000
                                      P - G
                                                     2        0.9064000       -6.91190100    0.00000000
                                                     2        1.0311000       72.12546539    0.00000000
                                                     2        1.3287000     -114.97533417    0.00000000
                                                     2        1.9037000      123.61668396    0.00000000
                                                     2        2.8364000      -71.13571167    0.00000000
                                                     2        4.5883999       79.01660156    0.00000000
                                                     1       11.1981001       51.28700638    0.00000000
                                                     0       32.2957001        5.65198278    0.00000000
                                      D - G
                                                     2        0.2931000       -0.11365700    0.00000000
                                                     2        1.0301000       -2.40402508    0.00000000
                                                     2        2.0186000       62.58111572    0.00000000
                                                     2        3.4391999      255.44717407    0.00000000
                                                     2        5.1578999     -161.80647278    0.00000000
                                                     2        2.5149000     -175.77076721    0.00000000
                                                     1        8.0623999       63.62079239    0.00000000
                                                     0       41.0284996        6.75031996    0.00000000
                                      F - G
                                                     2        0.4335000      -47.60779953    0.00000000
                                                     2        0.5097000      176.31802368    0.00000000
                                                     2        0.5796000     -168.67689514    0.00000000
                                                     2        0.7711000       54.49244690    0.00000000
                                                     2        2.5934999       37.71539307    0.00000000
                                                     2        8.3907003      -24.13967514    0.00000000
                                                     1        6.9294000       49.16802216    0.00000000
                                                     0       22.2588997        4.75958586    0.00000000
   11         79           11
                                      G and up 
                                                     2        0.9657000       -0.98690200    0.00000000
                                                     2        2.2904000       -9.68630600    0.00000000
                                                     2        6.4383998      -32.57246399    0.00000000
                                                     2       16.3645992     -118.53087616    0.00000000
                                                     2       55.9892998     -286.25463867    0.00000000
                                                     1      171.1013947      -51.27423096    0.00000000
                                      S - G
                                                     2        1.2248000      -84.96929932    0.00000000
                                                     2        1.4336000      280.17764282    0.00000000
                                                     2        1.8929000     -354.64355469    0.00000000
                                                     2        2.6963000      334.33190918    0.00000000
                                                     2        3.9899001     -219.39260864    0.00000000
                                                     2        6.0054998      170.85874939    0.00000000
                                                     1       14.5825996       56.33872986    0.00000000
                                                     0       39.3106995        6.40929985    0.00000000
                                      P - G
                                                     2        0.9064000       -6.91190100    0.00000000
                                                     2        1.0311000       72.12546539    0.00000000
                                                     2        1.3287000     -114.97533417    0.00000000
                                                     2        1.9037000      123.61668396    0.00000000
                                                     2        2.8364000      -71.13571167    0.00000000
                                                     2        4.5883999       79.01660156    0.00000000
                                                     1       11.1981001       51.28700638    0.00000000
                                                     0       32.2957001        5.65198278    0.00000000
                                      D - G
                                                     2        0.2931000       -0.11365700    0.00000000
                                                     2        1.0301000       -2.40402508    0.00000000
                                                     2        2.0186000       62.58111572    0.00000000
                                                     2        3.4391999      255.44717407    0.00000000
                                                     2        5.1578999     -161.80647278    0.00000000
                                                     2        2.5149000     -175.77076721    0.00000000
                                                     1        8.0623999       63.62079239    0.00000000
                                                     0       41.0284996        6.75031996    0.00000000
                                      F - G
                                                     2        0.4335000      -47.60779953    0.00000000
                                                     2        0.5097000      176.31802368    0.00000000
                                                     2        0.5796000     -168.67689514    0.00000000
                                                     2        0.7711000       54.49244690    0.00000000
                                                     2        2.5934999       37.71539307    0.00000000
                                                     2        8.3907003      -24.13967514    0.00000000
                                                     1        6.9294000       49.16802216    0.00000000
                                                     0       22.2588997        4.75958586    0.00000000
   12         79           11
                                      G and up 
                                                     2        0.9657000       -0.98690200    0.00000000
                                                     2        2.2904000       -9.68630600    0.00000000
                                                     2        6.4383998      -32.57246399    0.00000000
                                                     2       16.3645992     -118.53087616    0.00000000
                                                     2       55.9892998     -286.25463867    0.00000000
                                                     1      171.1013947      -51.27423096    0.00000000
                                      S - G
                                                     2        1.2248000      -84.96929932    0.00000000
                                                     2        1.4336000      280.17764282    0.00000000
                                                     2        1.8929000     -354.64355469    0.00000000
                                                     2        2.6963000      334.33190918    0.00000000
                                                     2        3.9899001     -219.39260864    0.00000000
                                                     2        6.0054998      170.85874939    0.00000000
                                                     1       14.5825996       56.33872986    0.00000000
                                                     0       39.3106995        6.40929985    0.00000000
                                      P - G
                                                     2        0.9064000       -6.91190100    0.00000000
                                                     2        1.0311000       72.12546539    0.00000000
                                                     2        1.3287000     -114.97533417    0.00000000
                                                     2        1.9037000      123.61668396    0.00000000
                                                     2        2.8364000      -71.13571167    0.00000000
                                                     2        4.5883999       79.01660156    0.00000000
                                                     1       11.1981001       51.28700638    0.00000000
                                                     0       32.2957001        5.65198278    0.00000000
                                      D - G
                                                     2        0.2931000       -0.11365700    0.00000000
                                                     2        1.0301000       -2.40402508    0.00000000
                                                     2        2.0186000       62.58111572    0.00000000
                                                     2        3.4391999      255.44717407    0.00000000
                                                     2        5.1578999     -161.80647278    0.00000000
                                                     2        2.5149000     -175.77076721    0.00000000
                                                     1        8.0623999       63.62079239    0.00000000
                                                     0       41.0284996        6.75031996    0.00000000
                                      F - G
                                                     2        0.4335000      -47.60779953    0.00000000
                                                     2        0.5097000      176.31802368    0.00000000
                                                     2        0.5796000     -168.67689514    0.00000000
                                                     2        0.7711000       54.49244690    0.00000000
                                                     2        2.5934999       37.71539307    0.00000000
                                                     2        8.3907003      -24.13967514    0.00000000
                                                     1        6.9294000       49.16802216    0.00000000
                                                     0       22.2588997        4.75958586    0.00000000
   13         79           11
                                      G and up 
                                                     2        0.9657000       -0.98690200    0.00000000
                                                     2        2.2904000       -9.68630600    0.00000000
                                                     2        6.4383998      -32.57246399    0.00000000
                                                     2       16.3645992     -118.53087616    0.00000000
                                                     2       55.9892998     -286.25463867    0.00000000
                                                     1      171.1013947      -51.27423096    0.00000000
                                      S - G
                                                     2        1.2248000      -84.96929932    0.00000000
                                                     2        1.4336000      280.17764282    0.00000000
                                                     2        1.8929000     -354.64355469    0.00000000
                                                     2        2.6963000      334.33190918    0.00000000
                                                     2        3.9899001     -219.39260864    0.00000000
                                                     2        6.0054998      170.85874939    0.00000000
                                                     1       14.5825996       56.33872986    0.00000000
                                                     0       39.3106995        6.40929985    0.00000000
                                      P - G
                                                     2        0.9064000       -6.91190100    0.00000000
                                                     2        1.0311000       72.12546539    0.00000000
                                                     2        1.3287000     -114.97533417    0.00000000
                                                     2        1.9037000      123.61668396    0.00000000
                                                     2        2.8364000      -71.13571167    0.00000000
                                                     2        4.5883999       79.01660156    0.00000000
                                                     1       11.1981001       51.28700638    0.00000000
                                                     0       32.2957001        5.65198278    0.00000000
                                      D - G
                                                     2        0.2931000       -0.11365700    0.00000000
                                                     2        1.0301000       -2.40402508    0.00000000
                                                     2        2.0186000       62.58111572    0.00000000
                                                     2        3.4391999      255.44717407    0.00000000
                                                     2        5.1578999     -161.80647278    0.00000000
                                                     2        2.5149000     -175.77076721    0.00000000
                                                     1        8.0623999       63.62079239    0.00000000
                                                     0       41.0284996        6.75031996    0.00000000
                                      F - G
                                                     2        0.4335000      -47.60779953    0.00000000
                                                     2        0.5097000      176.31802368    0.00000000
                                                     2        0.5796000     -168.67689514    0.00000000
                                                     2        0.7711000       54.49244690    0.00000000
                                                     2        2.5934999       37.71539307    0.00000000
                                                     2        8.3907003      -24.13967514    0.00000000
                                                     1        6.9294000       49.16802216    0.00000000
                                                     0       22.2588997        4.75958586    0.00000000
   14         79           11
                                      G and up 
                                                     2        0.9657000       -0.98690200    0.00000000
                                                     2        2.2904000       -9.68630600    0.00000000
                                                     2        6.4383998      -32.57246399    0.00000000
                                                     2       16.3645992     -118.53087616    0.00000000
                                                     2       55.9892998     -286.25463867    0.00000000
                                                     1      171.1013947      -51.27423096    0.00000000
                                      S - G
                                                     2        1.2248000      -84.96929932    0.00000000
                                                     2        1.4336000      280.17764282    0.00000000
                                                     2        1.8929000     -354.64355469    0.00000000
                                                     2        2.6963000      334.33190918    0.00000000
                                                     2        3.9899001     -219.39260864    0.00000000
                                                     2        6.0054998      170.85874939    0.00000000
                                                     1       14.5825996       56.33872986    0.00000000
                                                     0       39.3106995        6.40929985    0.00000000
                                      P - G
                                                     2        0.9064000       -6.91190100    0.00000000
                                                     2        1.0311000       72.12546539    0.00000000
                                                     2        1.3287000     -114.97533417    0.00000000
                                                     2        1.9037000      123.61668396    0.00000000
                                                     2        2.8364000      -71.13571167    0.00000000
                                                     2        4.5883999       79.01660156    0.00000000
                                                     1       11.1981001       51.28700638    0.00000000
                                                     0       32.2957001        5.65198278    0.00000000
                                      D - G
                                                     2        0.2931000       -0.11365700    0.00000000
                                                     2        1.0301000       -2.40402508    0.00000000
                                                     2        2.0186000       62.58111572    0.00000000
                                                     2        3.4391999      255.44717407    0.00000000
                                                     2        5.1578999     -161.80647278    0.00000000
                                                     2        2.5149000     -175.77076721    0.00000000
                                                     1        8.0623999       63.62079239    0.00000000
                                                     0       41.0284996        6.75031996    0.00000000
                                      F - G
                                                     2        0.4335000      -47.60779953    0.00000000
[...]
                 (A1G) (B2G) (B1U) (EU) (EU) (A2U) (A2G) (A1U)
                 (B1G) (EG) (EG) (B2U) (A1G) (EU) (EU) (EG) (EG)
                 (EU) (EU) (B1U) (EG) (EG) (B2G) (B1G) (A2U) (B2U)
                 (A1G) (EU) (EU) (EG) (EG) (EU) (EU) (A2U) (A1G)
                 (EG) (EG) (B2G) (B1U) (EU) (EU) (EG) (EG) (A2G)
                 (A1U) (EU) (EU) (A2U) (B1G) (B2U) (A2G) (A1U)
                 (EG) (EG) (B2G) (B1U) (EU) (EU) (A1G) (A2U) (EG)
                 (EG) (B1G) (B2U) (A1G) (A2U) (A1G) (EU) (EU) (EG)
                 (EG) (B1G) (EU) (EU) (B2U) (EG) (EG) (A1G) (A2U)
                 (A2U)
 The electronic state is 1-A1G.
 Alpha  occ. eigenvalues --   -0.50067  -0.50067  -0.50040  -0.50008  -0.49524
 Alpha  occ. eigenvalues --   -0.49524  -0.49507  -0.49507  -0.48995  -0.48972
 Alpha  occ. eigenvalues --   -0.48919  -0.48857  -0.47985  -0.47962  -0.47956
 Alpha  occ. eigenvalues --   -0.47877  -0.47630  -0.47630  -0.47589  -0.47589
 Alpha  occ. eigenvalues --   -0.47312  -0.47312  -0.47303  -0.47303  -0.46203
 Alpha  occ. eigenvalues --   -0.46203  -0.46078  -0.46077  -0.46005  -0.46003
 Alpha  occ. eigenvalues --   -0.45839  -0.45839  -0.45825  -0.45825  -0.45310
 Alpha  occ. eigenvalues --   -0.45310  -0.45307  -0.45307  -0.44983  -0.44968
 Alpha  occ. eigenvalues --   -0.44837  -0.44834  -0.44488  -0.44223  -0.44223
 Alpha  occ. eigenvalues --   -0.44213  -0.44213  -0.43457  -0.42981  -0.42980
 Alpha  occ. eigenvalues --   -0.42952  -0.42686  -0.42635  -0.42635  -0.42634
 Alpha  occ. eigenvalues --   -0.42634  -0.42062  -0.42059  -0.41828  -0.41828
 Alpha  occ. eigenvalues --   -0.41828  -0.41827  -0.41821  -0.41821  -0.41296
 Alpha  occ. eigenvalues --   -0.41278  -0.40961  -0.40961  -0.40960  -0.40960
 Alpha  occ. eigenvalues --   -0.40860  -0.40860  -0.40496  -0.40477  -0.40179
 Alpha  occ. eigenvalues --   -0.40179  -0.40168  -0.40168  -0.40157  -0.40157
 Alpha  occ. eigenvalues --   -0.39987  -0.39895  -0.39895  -0.39867  -0.39867
 Alpha  occ. eigenvalues --   -0.39731  -0.39686  -0.39686  -0.39649  -0.39649
 Alpha  occ. eigenvalues --   -0.39604  -0.39598  -0.39515  -0.39515  -0.39457
 Alpha  occ. eigenvalues --   -0.39457  -0.39451  -0.39451  -0.38894  -0.38894
 Alpha  occ. eigenvalues --   -0.38894  -0.38894  -0.38894  -0.38849  -0.38849
 Alpha  occ. eigenvalues --   -0.38650  -0.38566  -0.38545  -0.38532  -0.38509
 Alpha  occ. eigenvalues --   -0.38509  -0.38443  -0.38402  -0.38402  -0.38286
 Alpha  occ. eigenvalues --   -0.38286  -0.38284  -0.38284  -0.38175  -0.38168
 Alpha  occ. eigenvalues --   -0.37898  -0.37898  -0.37798  -0.37798  -0.37793
 Alpha  occ. eigenvalues --   -0.37735  -0.37735  -0.37717  -0.37717  -0.37504
 Alpha  occ. eigenvalues --   -0.36278  -0.36175  -0.36175  -0.36083  -0.36000
 Alpha  occ. eigenvalues --   -0.35961  -0.35798  -0.35759  -0.35526  -0.35189
 Alpha  occ. eigenvalues --   -0.35189  -0.35134  -0.31935  -0.31935  -0.31878
 Alpha  occ. eigenvalues --   -0.31878  -0.28310  -0.27410  -0.26293  -0.26283
 Alpha  occ. eigenvalues --   -0.21539  -0.21534  -0.21014  -0.20604
 Alpha virt. eigenvalues --   -0.19148  -0.19148  -0.18824  -0.18824  -0.16512
 Alpha virt. eigenvalues --   -0.16207  -0.16207  -0.16102  -0.16102  -0.12337
 Alpha virt. eigenvalues --   -0.11425  -0.11351  -0.09114  -0.09114  -0.08924
 Alpha virt. eigenvalues --   -0.08924  -0.08868  -0.08781  -0.07343  -0.07024
 Alpha virt. eigenvalues --   -0.06908  -0.05871  -0.05871  -0.05641  -0.04851
 Alpha virt. eigenvalues --   -0.04842  -0.04765  -0.04608  -0.04608  -0.04605
 Alpha virt. eigenvalues --   -0.03262  -0.02387  -0.02387  -0.01837  -0.01837
 Alpha virt. eigenvalues --    0.00647   0.00647   0.00814   0.00831   0.00831
 Alpha virt. eigenvalues --    0.00833   0.00975   0.01294   0.01910   0.02897
 Alpha virt. eigenvalues --    0.06661   0.06661   0.06841   0.06841   0.07135
 Alpha virt. eigenvalues --    0.07135   0.08761   0.08975   0.10067   0.10067
 Alpha virt. eigenvalues --    0.10148   0.10904   0.14227   0.14227   0.15909
 Alpha virt. eigenvalues --    0.15909   0.16646   0.17043   0.18337   0.18337
 Alpha virt. eigenvalues --    0.20549   0.20955   0.23991   0.25541   0.26051
 Alpha virt. eigenvalues --    0.29433   0.29433   0.49557   0.52558   0.58861
 Alpha virt. eigenvalues --    0.58861   0.65390   0.66603   0.68650   0.68650
 Alpha virt. eigenvalues --    0.82278   0.89236   0.95638   1.06039   1.33437
 Alpha virt. eigenvalues --    1.40828   1.40828   1.46312   1.46312   1.62780
 Alpha virt. eigenvalues --    1.67343   1.67343   1.68145   1.87963   1.87963
 Alpha virt. eigenvalues --    1.93527   2.10209   3.22234
          Condensed to atoms (all electrons):
               1          2          3          4          5          6
     1  Au  26.880831  -2.478027  -2.478027  -2.478027  -2.478027  -0.341807
     2  Au  -2.478027  21.524389  -0.977680  -0.977680  -0.457270  -1.679942
     3  Au  -2.478027  -0.977680  21.524389  -0.457270  -0.977680  -0.046929
     4  Au  -2.478027  -0.977680  -0.457270  21.524389  -0.977680  -1.679942
     5  Au  -2.478027  -0.457270  -0.977680  -0.977680  21.524389  -0.046929
     6  Au  -0.341807  -1.679942  -0.046929  -1.679942  -0.046929  15.905582
     7  Au  -0.341807  -1.679942  -1.679942  -0.046929  -0.046929  -0.271058
     8  Au  -0.341807  -0.046929  -1.679942  -0.046929  -1.679942  -0.007888
     9  Au  -0.341807  -0.046929  -0.046929  -1.679942  -1.679942  -0.271058
    10  Au  -1.062583  -0.581483  -0.581483  -0.305270  -0.305270  -0.285397
    11  Au  -1.062583  -0.581483  -0.305270  -0.581483  -0.305270   0.340696
    12  Au  -1.062583  -0.305270  -0.305270  -0.581483  -0.581483  -0.285397
    13  Au  -1.062583  -0.305270  -0.581483  -0.305270  -0.581483  -0.014671
    14  Au  -0.324012  -0.297694  -0.297694  -0.297694  -0.297694  -0.126181
    15  Au  -0.042265   0.002586   0.002586   0.002586   0.002586   0.004547
    16  Au  -0.001972  -0.001585  -0.001585   0.000298   0.000298  -0.000160
    17  Au  -0.001972  -0.001585   0.000298  -0.001585   0.000298  -0.001276
    18  Au  -0.001972   0.000298   0.000298  -0.001585  -0.001585  -0.000160
    19  Au  -0.001972   0.000298  -0.001585   0.000298  -0.001585   0.000225
    20  Au  -0.000323  -0.000062  -0.000062  -0.000062  -0.000062  -0.000016
    21  Au  -0.000062  -0.000195  -0.000015  -0.000015  -0.000001  -0.000044
    22  Au  -0.000062  -0.000015  -0.000195  -0.000001  -0.000015  -0.000001
    23  Au  -0.000062  -0.000015  -0.000001  -0.000195  -0.000015  -0.000044
    24  Au  -0.000062  -0.000001  -0.000015  -0.000015  -0.000195  -0.000001
    25  Au  -0.000016  -0.000044  -0.000001  -0.000044  -0.000001  -0.000096
    26  Au  -0.000016  -0.000044  -0.000044  -0.000001  -0.000001  -0.000010
    27  Au  -0.000016  -0.000001  -0.000044  -0.000001  -0.000044   0.000003
    28  Au  -0.000016  -0.000001  -0.000001  -0.000044  -0.000044  -0.000010
               7          8          9         10         11         12
     1  Au  -0.341807  -0.341807  -0.341807  -1.062583  -1.062583  -1.062583
     2  Au  -1.679942  -0.046929  -0.046929  -0.581483  -0.581483  -0.305270
     3  Au  -1.679942  -1.679942  -0.046929  -0.581483  -0.305270  -0.305270
     4  Au  -0.046929  -0.046929  -1.679942  -0.305270  -0.581483  -0.581483
     5  Au  -0.046929  -1.679942  -1.679942  -0.305270  -0.305270  -0.581483
     6  Au  -0.271058  -0.007888  -0.271058  -0.285397   0.340696  -0.285397
     7  Au  15.905582  -0.271058  -0.007888   0.340696  -0.285397  -0.014671
     8  Au  -0.271058  15.905582  -0.271058  -0.285397  -0.014671  -0.285397
     9  Au  -0.007888  -0.271058  15.905582  -0.014671  -0.285397   0.340696
    10  Au   0.340696  -0.285397  -0.014671  15.027156  -0.342435  -0.273714
    11  Au  -0.285397  -0.014671  -0.285397  -0.342435  15.027156  -0.342435
    12  Au  -0.014671  -0.285397   0.340696  -0.273714  -0.342435  15.027156
    13  Au  -0.285397   0.340696  -0.285397  -0.342435  -0.273714  -0.342435
    14  Au  -0.126181  -0.126181  -0.126181  -0.018462  -0.018462  -0.018462
    15  Au   0.004547   0.004547   0.004547  -0.086440  -0.086440  -0.086440
    16  Au  -0.001276  -0.000160   0.000225  -0.042498  -0.000218   0.011031
    17  Au  -0.000160   0.000225  -0.000160  -0.000218  -0.042498  -0.000218
    18  Au   0.000225  -0.000160  -0.001276   0.011031  -0.000218  -0.042498
    19  Au  -0.000160  -0.001276  -0.000160  -0.000218   0.011031  -0.000218
    20  Au  -0.000016  -0.000016  -0.000016  -0.001972  -0.001972  -0.001972
    21  Au  -0.000044  -0.000001  -0.000001  -0.001585  -0.001585   0.000298
    22  Au  -0.000044  -0.000044  -0.000001  -0.001585   0.000298   0.000298
    23  Au  -0.000001  -0.000001  -0.000044   0.000298  -0.001585  -0.001585
    24  Au  -0.000001  -0.000044  -0.000044   0.000298   0.000298  -0.001585
    25  Au  -0.000010   0.000003  -0.000010  -0.000160  -0.001276  -0.000160
    26  Au  -0.000096  -0.000010   0.000003  -0.001276  -0.000160   0.000225
    27  Au  -0.000010  -0.000096  -0.000010  -0.000160   0.000225  -0.000160
    28  Au   0.000003  -0.000010  -0.000096   0.000225  -0.000160  -0.001276
              13         14         15         16         17         18
     1  Au  -1.062583  -0.324012  -0.042265  -0.001972  -0.001972  -0.001972
     2  Au  -0.305270  -0.297694   0.002586  -0.001585  -0.001585   0.000298
     3  Au  -0.581483  -0.297694   0.002586  -0.001585   0.000298   0.000298
     4  Au  -0.305270  -0.297694   0.002586   0.000298  -0.001585  -0.001585
     5  Au  -0.581483  -0.297694   0.002586   0.000298   0.000298  -0.001585
     6  Au  -0.014671  -0.126181   0.004547  -0.000160  -0.001276  -0.000160
     7  Au  -0.285397  -0.126181   0.004547  -0.001276  -0.000160   0.000225
     8  Au   0.340696  -0.126181   0.004547  -0.000160   0.000225  -0.000160
     9  Au  -0.285397  -0.126181   0.004547   0.000225  -0.000160  -0.001276
    10  Au  -0.342435  -0.018462  -0.086440  -0.042498  -0.000218   0.011031
    11  Au  -0.273714  -0.018462  -0.086440  -0.000218  -0.042498  -0.000218
    12  Au  -0.342435  -0.018462  -0.086440   0.011031  -0.000218  -0.042498
    13  Au  15.027156  -0.018462  -0.086440  -0.000218   0.011031  -0.000218
    14  Au  -0.018462  13.362321  -0.467182  -0.086440  -0.086440  -0.086440
    15  Au  -0.086440  -0.467182  13.362321  -0.018462  -0.018462  -0.018462
    16  Au  -0.000218  -0.086440  -0.018462  15.027156  -0.342435  -0.273714
    17  Au   0.011031  -0.086440  -0.018462  -0.342435  15.027156  -0.342435
    18  Au  -0.000218  -0.086440  -0.018462  -0.273714  -0.342435  15.027156
    19  Au  -0.042498  -0.086440  -0.018462  -0.342435  -0.273714  -0.342435
    20  Au  -0.001972  -0.042265  -0.324012  -1.062583  -1.062583  -1.062583
    21  Au   0.000298   0.002586  -0.297694  -0.581483  -0.581483  -0.305270
    22  Au  -0.001585   0.002586  -0.297694  -0.581483  -0.305270  -0.305270
    23  Au   0.000298   0.002586  -0.297694  -0.305270  -0.581483  -0.581483
    24  Au  -0.001585   0.002586  -0.297694  -0.305270  -0.305270  -0.581483
    25  Au   0.000225   0.004547  -0.126181  -0.285397   0.340696  -0.285397
    26  Au  -0.000160   0.004547  -0.126181   0.340696  -0.285397  -0.014671
    27  Au  -0.001276   0.004547  -0.126181  -0.285397  -0.014671  -0.285397
    28  Au  -0.000160   0.004547  -0.126181  -0.014671  -0.285397   0.340696
              19         20         21         22         23         24
     1  Au  -0.001972  -0.000323  -0.000062  -0.000062  -0.000062  -0.000062
     2  Au   0.000298  -0.000062  -0.000195  -0.000015  -0.000015  -0.000001
     3  Au  -0.001585  -0.000062  -0.000015  -0.000195  -0.000001  -0.000015
     4  Au   0.000298  -0.000062  -0.000015  -0.000001  -0.000195  -0.000015
     5  Au  -0.001585  -0.000062  -0.000001  -0.000015  -0.000015  -0.000195
     6  Au   0.000225  -0.000016  -0.000044  -0.000001  -0.000044  -0.000001
     7  Au  -0.000160  -0.000016  -0.000044  -0.000044  -0.000001  -0.000001
     8  Au  -0.001276  -0.000016  -0.000001  -0.000044  -0.000001  -0.000044
     9  Au  -0.000160  -0.000016  -0.000001  -0.000001  -0.000044  -0.000044
    10  Au  -0.000218  -0.001972  -0.001585  -0.001585   0.000298   0.000298
    11  Au   0.011031  -0.001972  -0.001585   0.000298  -0.001585   0.000298
    12  Au  -0.000218  -0.001972   0.000298   0.000298  -0.001585  -0.001585
    13  Au  -0.042498  -0.001972   0.000298  -0.001585   0.000298  -0.001585
    14  Au  -0.086440  -0.042265   0.002586   0.002586   0.002586   0.002586
    15  Au  -0.018462  -0.324012  -0.297694  -0.297694  -0.297694  -0.297694
    16  Au  -0.342435  -1.062583  -0.581483  -0.581483  -0.305270  -0.305270
    17  Au  -0.273714  -1.062583  -0.581483  -0.305270  -0.581483  -0.305270
    18  Au  -0.342435  -1.062583  -0.305270  -0.305270  -0.581483  -0.581483
    19  Au  15.027156  -1.062583  -0.305270  -0.581483  -0.305270  -0.581483
    20  Au  -1.062583  26.880831  -2.478027  -2.478027  -2.478027  -2.478027
    21  Au  -0.305270  -2.478027  21.524389  -0.977680  -0.977680  -0.457270
    22  Au  -0.581483  -2.478027  -0.977680  21.524389  -0.457270  -0.977680
    23  Au  -0.305270  -2.478027  -0.977680  -0.457270  21.524389  -0.977680
    24  Au  -0.581483  -2.478027  -0.457270  -0.977680  -0.977680  21.524389
    25  Au  -0.014671  -0.341807  -1.679942  -0.046929  -1.679942  -0.046929
    26  Au  -0.285397  -0.341807  -1.679942  -1.679942  -0.046929  -0.046929
    27  Au   0.340696  -0.341807  -0.046929  -1.679942  -0.046929  -1.679942
    28  Au  -0.285397  -0.341807  -0.046929  -0.046929  -1.679942  -1.679942
              25         26         27         28
     1  Au  -0.000016  -0.000016  -0.000016  -0.000016
     2  Au  -0.000044  -0.000044  -0.000001  -0.000001
     3  Au  -0.000001  -0.000044  -0.000044  -0.000001
     4  Au  -0.000044  -0.000001  -0.000001  -0.000044
     5  Au  -0.000001  -0.000001  -0.000044  -0.000044
     6  Au  -0.000096  -0.000010   0.000003  -0.000010
     7  Au  -0.000010  -0.000096  -0.000010   0.000003
     8  Au   0.000003  -0.000010  -0.000096  -0.000010
     9  Au  -0.000010   0.000003  -0.000010  -0.000096
    10  Au  -0.000160  -0.001276  -0.000160   0.000225
    11  Au  -0.001276  -0.000160   0.000225  -0.000160
    12  Au  -0.000160   0.000225  -0.000160  -0.001276
    13  Au   0.000225  -0.000160  -0.001276  -0.000160
    14  Au   0.004547   0.004547   0.004547   0.004547
    15  Au  -0.126181  -0.126181  -0.126181  -0.126181
    16  Au  -0.285397   0.340696  -0.285397  -0.014671
    17  Au   0.340696  -0.285397  -0.014671  -0.285397
    18  Au  -0.285397  -0.014671  -0.285397   0.340696
    19  Au  -0.014671  -0.285397   0.340696  -0.285397
    20  Au  -0.341807  -0.341807  -0.341807  -0.341807
    21  Au  -1.679942  -1.679942  -0.046929  -0.046929
    22  Au  -0.046929  -1.679942  -1.679942  -0.046929
    23  Au  -1.679942  -0.046929  -0.046929  -1.679942
    24  Au  -0.046929  -0.046929  -1.679942  -1.679942
    25  Au  15.905582  -0.271058  -0.007888  -0.271058
    26  Au  -0.271058  15.905582  -0.271058  -0.007888
    27  Au  -0.007888  -0.271058  15.905582  -0.271058
    28  Au  -0.271058  -0.007888  -0.271058  15.905582
 Mulliken charges:
               1
     1  Au   0.023632
     2  Au  -0.108427
     3  Au  -0.108427
     4  Au  -0.108427
     5  Au  -0.108427
     6  Au  -0.192035
     7  Au  -0.192035
     8  Au  -0.192035
     9  Au  -0.192035
    10  Au   0.155006
    11  Au   0.155006
    12  Au   0.155006
    13  Au   0.155006
    14  Au   0.557714
    15  Au   0.557714
    16  Au   0.155006
    17  Au   0.155006
    18  Au   0.155006
    19  Au   0.155006
    20  Au   0.023632
    21  Au  -0.108427
    22  Au  -0.108427
    23  Au  -0.108427
    24  Au  -0.108427
    25  Au  -0.192035
    26  Au  -0.192035
    27  Au  -0.192035
    28  Au  -0.192035
 Sum of Mulliken charges =  -0.00096
 Mulliken charges with hydrogens summed into heavy atoms:
               1
     1  Au   0.023632
     2  Au  -0.108427
     3  Au  -0.108427
     4  Au  -0.108427
     5  Au  -0.108427
     6  Au  -0.192035
     7  Au  -0.192035
     8  Au  -0.192035
     9  Au  -0.192035
    10  Au   0.155006
    11  Au   0.155006
    12  Au   0.155006
    13  Au   0.155006
    14  Au   0.557714
    15  Au   0.557714
    16  Au   0.155006
    17  Au   0.155006
    18  Au   0.155006
    19  Au   0.155006
    20  Au   0.023632
    21  Au  -0.108427
    22  Au  -0.108427
    23  Au  -0.108427
    24  Au  -0.108427
    25  Au  -0.192035
    26  Au  -0.192035
    27  Au  -0.192035
    28  Au  -0.192035
 Electronic spatial extent (au):  <R**2>=          35720.5610
 Charge=             -0.0010 electrons
 Dipole moment (field-independent basis, Debye):
    X=              0.0000    Y=              0.0000    Z=              0.0000  Tot=              0.0000
 Quadrupole moment (field-independent basis, Debye-Ang):
   XX=           -638.5078   YY=           -638.5078   ZZ=           -748.8595
   XY=              0.0000   XZ=              0.0000   YZ=              0.0000
 Traceless Quadrupole moment (field-independent basis, Debye-Ang):
   XX=             36.7839   YY=             36.7839   ZZ=            -73.5677
   XY=              0.0000   XZ=              0.0000   YZ=              0.0000
 Octapole moment (field-independent basis, Debye-Ang**2):
  XXX=              0.0000  YYY=              0.0000  ZZZ=              0.0000  XYY=              0.0000
  XXY=              0.0000  XXZ=              0.0000  XZZ=              0.0000  YZZ=              0.0000
  YYZ=              0.0000  XYZ=              0.0000
 Hexadecapole moment (field-independent basis, Debye-Ang**3):
 XXXX=         -18453.5351 YYYY=         -18453.5351 ZZZZ=         -90919.1710 XXXY=              0.0000
 XXXZ=              0.0000 YYYX=              0.0000 YYYZ=              0.0000 ZZZX=              0.0000
 ZZZY=              0.0000 XXYY=          -6012.2294 XXZZ=         -19177.3547 YYZZ=         -19177.3547
 XXYZ=              0.0000 YYXZ=              0.0000 ZZXY=              0.0000
 N-N= 4.319034685828D+03 E-N=-1.103081080256D+04  KE= 7.011170219263D+02
 Symmetry AG   KE= 1.040631220138D+02
 Symmetry B1G  KE= 7.562565694452D+01
 Symmetry B2G  KE= 8.546643225649D+01
 Symmetry B3G  KE= 8.546643225649D+01
 Symmetry AU   KE= 7.570026709895D+01
 Symmetry B1U  KE= 1.044761629927D+02
 Symmetry B2U  KE= 8.515947418173D+01
 Symmetry B3U  KE= 8.515947418173D+01
 No NMR shielding tensors so no spin-rotation constants.
 Leave Link  601 at Wed Feb 10 13:45:53 2016, MaxMem=   134217728 cpu:         2.1
 (Enter /home/palacios/gaussian/g09/l9999.exe)
 1\1\GINC-ASUS\SP\RSVWN\Gen\Au28\PALACIOS\10-Feb-2016\0\\#p lsda/gen ps
 eudo=read pop=min Scf=(conver=5,maxcycle=100,dsymm)\\Au9-Au4-Au-Au-Au4
 -Au9\\0,1\Au,0,0.,0.,7.\Au,0,-2.,2.,7.\Au,0,2.,2.,7.\Au,0,-2.,-2.,7.\A
 u,0,2.,-2.,7.\Au,0,-4.,0.,7.\Au,0,0.,4.,7.\Au,0,4.,0.,7.\Au,0,0.,-4.,7
 .\Au,0,0.,2.,5.\Au,0,-2.,0.,5.\Au,0,0.,-2.,5.\Au,0,2.,0.,5.\Au,0,0.,0.
 ,3.\Au,0,0.,0.,0.\Au,0,0.,2.,-2.\Au,0,-2.,0.,-2.\Au,0,0.,-2.,-2.\Au,0,
 2.,0.,-2.\Au,0,0.,0.,-4.\Au,0,-2.,2.,-4.\Au,0,2.,2.,-4.\Au,0,-2.,-2.,-
 4.\Au,0,2.,-2.,-4.\Au,0,-4.,0.,-4.\Au,0,0.,4.,-4.\Au,0,4.,0.,-4.\Au,0,
 0.,-4.,-4.\\Version=ES64L-G09RevD.01\State=1-A1G\HF=-971.9762336\RMSD=
 3.222e-06\Dipole=0.,0.,0.\Quadrupole=27.347908,27.347908,-54.695816,0.
 ,0.,0.\PG=D04H [C4(Au1Au1.Au1Au1),2SGV(Au8),2SGD(Au4)]\\@


 THE MORE PROGRESS PHYSICAL SCIENCES MAKE, THE MORE THEY TEND TO ENTER
 THE DOMAIN OF MATHEMATICS, WHICH IS A KIND OF CENTRE TO WHICH THEY ALL
 CONVERGE.  WE MAY EVEN JUDGE THE DEGREE OF PERFECTION TO WHICH A 
 SCIENCE HAS ARRIVED BY THE FACILITY WITH WHICH IT MAY BE SUBMITTED
 TO CALCULATION.

                               -- ADOLPHE QUETELET, 1796-1874
 Job cpu time:       0 days  0 hours 14 minutes 24.8 seconds.
 File lengths (MBytes):  RWF=     36 Int=      0 D2E=      0 Chk=      3 Scr=      1
 Normal termination of Gaussian 09 at Wed Feb 10 13:45:53 2016.
