 Entering Gaussian System, Link 0=g09
 Input=Au9-Au4-Au-Au4-Au9.gjf
 Output=Au9-Au4-Au-Au4-Au9.log
 Initial command:
 /home/palacios/gaussian/g09/l1.exe "/home/palacios/scratch/Gau-25019.inp" -scrdir="/home/palacios/scratch/"
 Entering Link 1 = /home/palacios/gaussian/g09/l1.exe PID=     25021.
  
 Copyright (c) 1988,1990,1992,1993,1995,1998,2003,2009,2013,
            Gaussian, Inc.  All Rights Reserved.
  
 This is part of the Gaussian(R) 09 program.  It is based on
 the Gaussian(R) 03 system (copyright 2003, Gaussian, Inc.),
 the Gaussian(R) 98 system (copyright 1998, Gaussian, Inc.),
 the Gaussian(R) 94 system (copyright 1995, Gaussian, Inc.),
 the Gaussian 92(TM) system (copyright 1992, Gaussian, Inc.),
 the Gaussian 90(TM) system (copyright 1990, Gaussian, Inc.),
 the Gaussian 88(TM) system (copyright 1988, Gaussian, Inc.),
 the Gaussian 86(TM) system (copyright 1986, Carnegie Mellon
 University), and the Gaussian 82(TM) system (copyright 1983,
 Carnegie Mellon University). Gaussian is a federally registered
 trademark of Gaussian, Inc.
  
 This software contains proprietary and confidential information,
 including trade secrets, belonging to Gaussian, Inc.
  
 This software is provided under written license and may be
 used, copied, transmitted, or stored only in accord with that
 written license.
  
 The following legend is applicable only to US Government
 contracts under FAR:
  
                    RESTRICTED RIGHTS LEGEND
  
 Use, reproduction and disclosure by the US Government is
 subject to restrictions as set forth in subparagraphs (a)
 and (c) of the Commercial Computer Software - Restricted
 Rights clause in FAR 52.227-19.
  
 Gaussian, Inc.
 340 Quinnipiac St., Bldg. 40, Wallingford CT 06492
  
  
 ---------------------------------------------------------------
 Warning -- This program may not be used in any manner that
 competes with the business of Gaussian, Inc. or will provide
 assistance to any competitor of Gaussian, Inc.  The licensee
 of this program is prohibited from giving any competitor of
 Gaussian, Inc. access to this program.  By using this program,
 the user acknowledges that Gaussian, Inc. is engaged in the
 business of creating and licensing software in the field of
 computational chemistry and represents and warrants to the
 licensee that it is not a competitor of Gaussian, Inc. and that
 it will not use this program in any manner prohibited above.
 ---------------------------------------------------------------
  

 Cite this work as:
 Gaussian 09, Revision D.01,
 M. J. Frisch, G. W. Trucks, H. B. Schlegel, G. E. Scuseria, 
 M. A. Robb, J. R. Cheeseman, G. Scalmani, V. Barone, B. Mennucci, 
 G. A. Petersson, H. Nakatsuji, M. Caricato, X. Li, H. P. Hratchian, 
 A. F. Izmaylov, J. Bloino, G. Zheng, J. L. Sonnenberg, M. Hada, 
 M. Ehara, K. Toyota, R. Fukuda, J. Hasegawa, M. Ishida, T. Nakajima, 
 Y. Honda, O. Kitao, H. Nakai, T. Vreven, J. A. Montgomery, Jr., 
 J. E. Peralta, F. Ogliaro, M. Bearpark, J. J. Heyd, E. Brothers, 
 K. N. Kudin, V. N. Staroverov, T. Keith, R. Kobayashi, J. Normand, 
 K. Raghavachari, A. Rendell, J. C. Burant, S. S. Iyengar, J. Tomasi, 
 M. Cossi, N. Rega, J. M. Millam, M. Klene, J. E. Knox, J. B. Cross, 
 V. Bakken, C. Adamo, J. Jaramillo, R. Gomperts, R. E. Stratmann, 
 O. Yazyev, A. J. Austin, R. Cammi, C. Pomelli, J. W. Ochterski, 
 R. L. Martin, K. Morokuma, V. G. Zakrzewski, G. A. Voth, 
 P. Salvador, J. J. Dannenberg, S. Dapprich, A. D. Daniels, 
 O. Farkas, J. B. Foresman, J. V. Ortiz, J. Cioslowski, 
 and D. J. Fox, Gaussian, Inc., Wallingford CT, 2013.
 
 ******************************************
 Gaussian 09:  ES64L-G09RevD.01 24-Apr-2013
                27-Mar-2019 
 ******************************************
 %mem=1gb
 %NProcShared=4
 Will use up to    4 processors via shared memory.
 %Subst L101 ../bin
 %Subst L502 ../bin
 ----------------------------------------------------------------------
 #p lsda/gen pseudo=read pop=reg Scf=(conver=5,maxcycle=100,dsymm) nosy
 mm
 ----------------------------------------------------------------------
 1/38=1/1;
 2/12=2,15=1,17=6,18=5,40=1/2;
 3/5=7,11=2,16=1,17=8,25=1,30=1,74=205/1,2,3;
 4//1;
 5/5=2,6=5,7=100,17=200,38=5/2;
 6/28=1/1;
 99/5=1,9=1/99;
 Leave Link    1 at Wed Mar 27 15:27:02 2019, MaxMem=   134217728 cpu:         0.2
 (Enter ../bin/l101.exe)
 ------------------
 Au9-Au4-Au-Au4-Au9
 ------------------
 Symbolic Z-matrix:
 Charge =  1 Multiplicity = 1
 Au                    0.        0.        7. 
 Au                   -2.        2.        7. 
 Au                    2.        2.        7. 
 Au                   -2.       -2.        7. 
 Au                    2.       -2.        7. 
 Au                   -4.        0.        7. 
 Au                    0.        4.        7. 
 Au                    4.        0.        7. 
 Au                    0.       -4.        7. 
 Au                    0.        2.        5. 
 Au                   -2.        0.        5. 
 Au                    0.       -2.        5. 
 Au                    2.        0.        5. 
 Au                    0.        0.        2.5 
 Au                    0.        2.        0. 
 Au                   -2.        0.        0. 
 Au                    0.       -2.        0. 
 Au                    2.        0.        0. 
 Au                    0.        0.       -2. 
 Au                   -2.        2.       -2. 
 Au                    2.        2.       -2. 
 Au                   -2.       -2.       -2. 
 Au                    2.       -2.       -2. 
 Au                   -4.        0.       -2. 
 Au                    0.        4.       -2. 
 Au                    4.        0.       -2. 
 Au                    0.       -4.       -2. 
 
 NAtoms=     27 NQM=       27 NQMF=       0 NMMI=      0 NMMIF=      0
                NMic=       0 NMicF=      0.
                    Isotopes and Nuclear Properties:
 (Nuclear quadrupole moments (NQMom) in fm**2, nuclear magnetic moments (NMagM)
  in nuclear magnetons)

  Atom         1           2           3           4           5           6           7           8           9          10
 IAtWgt=         197         197         197         197         197         197         197         197         197         197
 AtmWgt= 196.9666000 196.9666000 196.9666000 196.9666000 196.9666000 196.9666000 196.9666000 196.9666000 196.9666000 196.9666000
 NucSpn=           3           3           3           3           3           3           3           3           3           3
 AtZEff=   0.0000000   0.0000000   0.0000000   0.0000000   0.0000000   0.0000000   0.0000000   0.0000000   0.0000000   0.0000000
 NQMom=   54.7000000  54.7000000  54.7000000  54.7000000  54.7000000  54.7000000  54.7000000  54.7000000  54.7000000  54.7000000
 NMagM=    0.1481590   0.1481590   0.1481590   0.1481590   0.1481590   0.1481590   0.1481590   0.1481590   0.1481590   0.1481590
 AtZNuc=  79.0000000  79.0000000  79.0000000  79.0000000  79.0000000  79.0000000  79.0000000  79.0000000  79.0000000  79.0000000

  Atom        11          12          13          14          15          16          17          18          19          20
 IAtWgt=         197         197         197         197         197         197         197         197         197         197
 AtmWgt= 196.9666000 196.9666000 196.9666000 196.9666000 196.9666000 196.9666000 196.9666000 196.9666000 196.9666000 196.9666000
 NucSpn=           3           3           3           3           3           3           3           3           3           3
 AtZEff=   0.0000000   0.0000000   0.0000000   0.0000000   0.0000000   0.0000000   0.0000000   0.0000000   0.0000000   0.0000000
 NQMom=   54.7000000  54.7000000  54.7000000  54.7000000  54.7000000  54.7000000  54.7000000  54.7000000  54.7000000  54.7000000
 NMagM=    0.1481590   0.1481590   0.1481590   0.1481590   0.1481590   0.1481590   0.1481590   0.1481590   0.1481590   0.1481590
 AtZNuc=  79.0000000  79.0000000  79.0000000  79.0000000  79.0000000  79.0000000  79.0000000  79.0000000  79.0000000  79.0000000

  Atom        21          22          23          24          25          26          27
 IAtWgt=         197         197         197         197         197         197         197
 AtmWgt= 196.9666000 196.9666000 196.9666000 196.9666000 196.9666000 196.9666000 196.9666000
 NucSpn=           3           3           3           3           3           3           3
 AtZEff=   0.0000000   0.0000000   0.0000000   0.0000000   0.0000000   0.0000000   0.0000000
 NQMom=   54.7000000  54.7000000  54.7000000  54.7000000  54.7000000  54.7000000  54.7000000
 NMagM=    0.1481590   0.1481590   0.1481590   0.1481590   0.1481590   0.1481590   0.1481590
 AtZNuc=  79.0000000  79.0000000  79.0000000  79.0000000  79.0000000  79.0000000  79.0000000
 Leave Link  101 at Wed Mar 27 15:27:03 2019, MaxMem=   134217728 cpu:         0.5
 (Enter /home/palacios/gaussian/g09/l202.exe)
                          Input orientation:                          
 ---------------------------------------------------------------------
 Center     Atomic      Atomic             Coordinates (Angstroms)
 Number     Number       Type             X           Y           Z
 ---------------------------------------------------------------------
      1         79           0        0.000000    0.000000    7.000000
      2         79           0       -2.000000    2.000000    7.000000
      3         79           0        2.000000    2.000000    7.000000
      4         79           0       -2.000000   -2.000000    7.000000
      5         79           0        2.000000   -2.000000    7.000000
      6         79           0       -4.000000    0.000000    7.000000
      7         79           0        0.000000    4.000000    7.000000
      8         79           0        4.000000    0.000000    7.000000
      9         79           0        0.000000   -4.000000    7.000000
     10         79           0        0.000000    2.000000    5.000000
     11         79           0       -2.000000    0.000000    5.000000
     12         79           0        0.000000   -2.000000    5.000000
     13         79           0        2.000000    0.000000    5.000000
     14         79           0        0.000000    0.000000    2.500000
     15         79           0        0.000000    2.000000    0.000000
     16         79           0       -2.000000    0.000000    0.000000
     17         79           0        0.000000   -2.000000    0.000000
     18         79           0        2.000000    0.000000    0.000000
     19         79           0        0.000000    0.000000   -2.000000
     20         79           0       -2.000000    2.000000   -2.000000
     21         79           0        2.000000    2.000000   -2.000000
     22         79           0       -2.000000   -2.000000   -2.000000
     23         79           0        2.000000   -2.000000   -2.000000
     24         79           0       -4.000000    0.000000   -2.000000
     25         79           0        0.000000    4.000000   -2.000000
     26         79           0        4.000000    0.000000   -2.000000
     27         79           0        0.000000   -4.000000   -2.000000
 ---------------------------------------------------------------------
                    Distance matrix (angstroms):
                    1          2          3          4          5
     1  Au   0.000000
     2  Au   2.828427   0.000000
     3  Au   2.828427   4.000000   0.000000
     4  Au   2.828427   4.000000   5.656854   0.000000
     5  Au   2.828427   5.656854   4.000000   4.000000   0.000000
     6  Au   4.000000   2.828427   6.324555   2.828427   6.324555
     7  Au   4.000000   2.828427   2.828427   6.324555   6.324555
     8  Au   4.000000   6.324555   2.828427   6.324555   2.828427
     9  Au   4.000000   6.324555   6.324555   2.828427   2.828427
    10  Au   2.828427   2.828427   2.828427   4.898979   4.898979
    11  Au   2.828427   2.828427   4.898979   2.828427   4.898979
    12  Au   2.828427   4.898979   4.898979   2.828427   2.828427
    13  Au   2.828427   4.898979   2.828427   4.898979   2.828427
    14  Au   4.500000   5.315073   5.315073   5.315073   5.315073
    15  Au   7.280110   7.280110   7.280110   8.306624   8.306624
    16  Au   7.280110   7.280110   8.306624   7.280110   8.306624
    17  Au   7.280110   8.306624   8.306624   7.280110   7.280110
    18  Au   7.280110   8.306624   7.280110   8.306624   7.280110
    19  Au   9.000000   9.433981   9.433981   9.433981   9.433981
    20  Au   9.433981   9.000000   9.848858   9.848858  10.630146
    21  Au   9.433981   9.848858   9.000000  10.630146   9.848858
    22  Au   9.433981   9.848858  10.630146   9.000000   9.848858
    23  Au   9.433981  10.630146   9.848858   9.848858   9.000000
    24  Au   9.848858   9.433981  11.000000   9.433981  11.000000
    25  Au   9.848858   9.433981   9.433981  11.000000  11.000000
    26  Au   9.848858  11.000000   9.433981  11.000000   9.433981
    27  Au   9.848858  11.000000  11.000000   9.433981   9.433981
                    6          7          8          9         10
     6  Au   0.000000
     7  Au   5.656854   0.000000
     8  Au   8.000000   5.656854   0.000000
     9  Au   5.656854   8.000000   5.656854   0.000000
    10  Au   4.898979   2.828427   4.898979   6.324555   0.000000
    11  Au   2.828427   4.898979   6.324555   4.898979   2.828427
    12  Au   4.898979   6.324555   4.898979   2.828427   4.000000
    13  Au   6.324555   4.898979   2.828427   4.898979   2.828427
    14  Au   6.020797   6.020797   6.020797   6.020797   3.201562
    15  Au   8.306624   7.280110   8.306624   9.219544   5.000000
    16  Au   7.280110   8.306624   9.219544   8.306624   5.744563
    17  Au   8.306624   9.219544   8.306624   7.280110   6.403124
    18  Au   9.219544   8.306624   7.280110   8.306624   5.744563
    19  Au   9.848858   9.848858   9.848858   9.848858   7.280110
    20  Au   9.433981   9.433981  11.000000  11.000000   7.280110
    21  Au  11.000000   9.433981   9.433981  11.000000   7.280110
    22  Au   9.433981  11.000000  11.000000   9.433981   8.306624
    23  Au  11.000000  11.000000   9.433981   9.433981   8.306624
    24  Au   9.000000  10.630146  12.041595  10.630146   8.306624
    25  Au  10.630146   9.000000  10.630146  12.041595   7.280110
    26  Au  12.041595  10.630146   9.000000  10.630146   8.306624
    27  Au  10.630146  12.041595  10.630146   9.000000   9.219544
                   11         12         13         14         15
    11  Au   0.000000
    12  Au   2.828427   0.000000
    13  Au   4.000000   2.828427   0.000000
    14  Au   3.201562   3.201562   3.201562   0.000000
    15  Au   5.744563   6.403124   5.744563   3.201562   0.000000
    16  Au   5.000000   5.744563   6.403124   3.201562   2.828427
    17  Au   5.744563   5.000000   5.744563   3.201562   4.000000
    18  Au   6.403124   5.744563   5.000000   3.201562   2.828427
    19  Au   7.280110   7.280110   7.280110   4.500000   2.828427
    20  Au   7.280110   8.306624   8.306624   5.315073   2.828427
    21  Au   8.306624   8.306624   7.280110   5.315073   2.828427
    22  Au   7.280110   7.280110   8.306624   5.315073   4.898979
    23  Au   8.306624   7.280110   7.280110   5.315073   4.898979
    24  Au   7.280110   8.306624   9.219544   6.020797   4.898979
    25  Au   8.306624   9.219544   8.306624   6.020797   2.828427
    26  Au   9.219544   8.306624   7.280110   6.020797   4.898979
    27  Au   8.306624   7.280110   8.306624   6.020797   6.324555
                   16         17         18         19         20
    16  Au   0.000000
    17  Au   2.828427   0.000000
    18  Au   4.000000   2.828427   0.000000
    19  Au   2.828427   2.828427   2.828427   0.000000
    20  Au   2.828427   4.898979   4.898979   2.828427   0.000000
    21  Au   4.898979   4.898979   2.828427   2.828427   4.000000
    22  Au   2.828427   2.828427   4.898979   2.828427   4.000000
    23  Au   4.898979   2.828427   2.828427   2.828427   5.656854
    24  Au   2.828427   4.898979   6.324555   4.000000   2.828427
    25  Au   4.898979   6.324555   4.898979   4.000000   2.828427
    26  Au   6.324555   4.898979   2.828427   4.000000   6.324555
    27  Au   4.898979   2.828427   4.898979   4.000000   6.324555
                   21         22         23         24         25
    21  Au   0.000000
    22  Au   5.656854   0.000000
    23  Au   4.000000   4.000000   0.000000
    24  Au   6.324555   2.828427   6.324555   0.000000
    25  Au   2.828427   6.324555   6.324555   5.656854   0.000000
    26  Au   2.828427   6.324555   2.828427   8.000000   5.656854
    27  Au   6.324555   2.828427   2.828427   5.656854   8.000000
                   26         27
    26  Au   0.000000
    27  Au   5.656854   0.000000
 Symmetry turned off by external request.
 Stoichiometry    Au27(1+)
 Framework group  D4H[O(Au),C4(Au.Au),2SGV(Au8),2SGD(Au4)]
 Deg. of freedom     7
 Full point group                 D4H     NOp  16
 Rotational constants (GHZ):      0.0114545      0.0048733      0.0048733
 Leave Link  202 at Wed Mar 27 15:27:03 2019, MaxMem=   134217728 cpu:         0.1
 (Enter /home/palacios/gaussian/g09/l301.exe)
 General basis read from cards:  (5D, 7F)
 Centers:       1      2      3      4      5      6      7      8      9     10
 Centers:      11     12     13     14     15     16     17     18     19     20
 Centers:      21     22     23     24     25     26     27
 S 3 1.00
     Exponent=  4.4090000000D-01 Coefficients= -7.4780000000D-01
     Exponent=  2.6260000000D-01 Coefficients=  8.1760000000D-01
     Exponent=  6.1700000000D-02 Coefficients=  8.1130000000D-01
 P 3 1.00
     Exponent=  6.6420000000D-01 Coefficients= -4.5900000000D-02
     Exponent=  1.0730000000D-01 Coefficients=  3.7780000000D-01
     Exponent=  3.1900000000D-02 Coefficients=  7.2330000000D-01
 D 4 1.00
     Exponent=  1.3517000000D+00 Coefficients=  4.7870000000D-01
     Exponent=  5.1490000000D-01 Coefficients=  4.5820000000D-01
     Exponent=  1.9940000000D-01 Coefficients=  2.2030000000D-01
     Exponent=  7.7600000000D-02 Coefficients=  4.1200000000D-02
 ****
 ======================================================================================================
                                       Pseudopotential Parameters
 ======================================================================================================
  Center     Atomic      Valence      Angular      Power
  Number     Number     Electrons     Momentum     of R      Exponent        Coefficient   SO-Coeffient
 ======================================================================================================
    1         79           11
                                      G and up 
                                                     2        0.9657000       -0.98690200    0.00000000
                                                     2        2.2904000       -9.68630600    0.00000000
                                                     2        6.4383998      -32.57246399    0.00000000
                                                     2       16.3645992     -118.53087616    0.00000000
                                                     2       55.9892998     -286.25463867    0.00000000
                                                     1      171.1013947      -51.27423096    0.00000000
                                      S - G
                                                     2        1.2248000      -84.96929932    0.00000000
                                                     2        1.4336000      280.17764282    0.00000000
                                                     2        1.8929000     -354.64355469    0.00000000
                                                     2        2.6963000      334.33190918    0.00000000
                                                     2        3.9899001     -219.39260864    0.00000000
                                                     2        6.0054998      170.85874939    0.00000000
                                                     1       14.5825996       56.33872986    0.00000000
                                                     0       39.3106995        6.40929985    0.00000000
                                      P - G
                                                     2        0.9064000       -6.91190100    0.00000000
                                                     2        1.0311000       72.12546539    0.00000000
                                                     2        1.3287000     -114.97533417    0.00000000
                                                     2        1.9037000      123.61668396    0.00000000
                                                     2        2.8364000      -71.13571167    0.00000000
                                                     2        4.5883999       79.01660156    0.00000000
                                                     1       11.1981001       51.28700638    0.00000000
                                                     0       32.2957001        5.65198278    0.00000000
                                      D - G
                                                     2        0.2931000       -0.11365700    0.00000000
                                                     2        1.0301000       -2.40402508    0.00000000
                                                     2        2.0186000       62.58111572    0.00000000
                                                     2        3.4391999      255.44717407    0.00000000
                                                     2        5.1578999     -161.80647278    0.00000000
                                                     2        2.5149000     -175.77076721    0.00000000
                                                     1        8.0623999       63.62079239    0.00000000
                                                     0       41.0284996        6.75031996    0.00000000
                                      F - G
                                                     2        0.4335000      -47.60779953    0.00000000
                                                     2        0.5097000      176.31802368    0.00000000
                                                     2        0.5796000     -168.67689514    0.00000000
                                                     2        0.7711000       54.49244690    0.00000000
                                                     2        2.5934999       37.71539307    0.00000000
                                                     2        8.3907003      -24.13967514    0.00000000
                                                     1        6.9294000       49.16802216    0.00000000
                                                     0       22.2588997        4.75958586    0.00000000
    2         79           11
                                      G and up 
                                                     2        0.9657000       -0.98690200    0.00000000
                                                     2        2.2904000       -9.68630600    0.00000000
                                                     2        6.4383998      -32.57246399    0.00000000
                                                     2       16.3645992     -118.53087616    0.00000000
                                                     2       55.9892998     -286.25463867    0.00000000
                                                     1      171.1013947      -51.27423096    0.00000000
                                      S - G
                                                     2        1.2248000      -84.96929932    0.00000000
                                                     2        1.4336000      280.17764282    0.00000000
                                                     2        1.8929000     -354.64355469    0.00000000
                                                     2        2.6963000      334.33190918    0.00000000
                                                     2        3.9899001     -219.39260864    0.00000000
                                                     2        6.0054998      170.85874939    0.00000000
                                                     1       14.5825996       56.33872986    0.00000000
                                                     0       39.3106995        6.40929985    0.00000000
                                      P - G
                                                     2        0.9064000       -6.91190100    0.00000000
                                                     2        1.0311000       72.12546539    0.00000000
                                                     2        1.3287000     -114.97533417    0.00000000
                                                     2        1.9037000      123.61668396    0.00000000
                                                     2        2.8364000      -71.13571167    0.00000000
                                                     2        4.5883999       79.01660156    0.00000000
                                                     1       11.1981001       51.28700638    0.00000000
                                                     0       32.2957001        5.65198278    0.00000000
                                      D - G
                                                     2        0.2931000       -0.11365700    0.00000000
                                                     2        1.0301000       -2.40402508    0.00000000
                                                     2        2.0186000       62.58111572    0.00000000
                                                     2        3.4391999      255.44717407    0.00000000
                                                     2        5.1578999     -161.80647278    0.00000000
                                                     2        2.5149000     -175.77076721    0.00000000
                                                     1        8.0623999       63.62079239    0.00000000
                                                     0       41.0284996        6.75031996    0.00000000
                                      F - G
                                                     2        0.4335000      -47.60779953    0.00000000
                                                     2        0.5097000      176.31802368    0.00000000
                                                     2        0.5796000     -168.67689514    0.00000000
                                                     2        0.7711000       54.49244690    0.00000000
                                                     2        2.5934999       37.71539307    0.00000000
                                                     2        8.3907003      -24.13967514    0.00000000
                                                     1        6.9294000       49.16802216    0.00000000
                                                     0       22.2588997        4.75958586    0.00000000
    3         79           11
                                      G and up 
                                                     2        0.9657000       -0.98690200    0.00000000
                                                     2        2.2904000       -9.68630600    0.00000000
                                                     2        6.4383998      -32.57246399    0.00000000
                                                     2       16.3645992     -118.53087616    0.00000000
                                                     2       55.9892998     -286.25463867    0.00000000
                                                     1      171.1013947      -51.27423096    0.00000000
                                      S - G
                                                     2        1.2248000      -84.96929932    0.00000000
                                                     2        1.4336000      280.17764282    0.00000000
                                                     2        1.8929000     -354.64355469    0.00000000
                                                     2        2.6963000      334.33190918    0.00000000
                                                     2        3.9899001     -219.39260864    0.00000000
                                                     2        6.0054998      170.85874939    0.00000000
                                                     1       14.5825996       56.33872986    0.00000000
                                                     0       39.3106995        6.40929985    0.00000000
                                      P - G
                                                     2        0.9064000       -6.91190100    0.00000000
                                                     2        1.0311000       72.12546539    0.00000000
                                                     2        1.3287000     -114.97533417    0.00000000
                                                     2        1.9037000      123.61668396    0.00000000
                                                     2        2.8364000      -71.13571167    0.00000000
                                                     2        4.5883999       79.01660156    0.00000000
                                                     1       11.1981001       51.28700638    0.00000000
                                                     0       32.2957001        5.65198278    0.00000000
                                      D - G
                                                     2        0.2931000       -0.11365700    0.00000000
                                                     2        1.0301000       -2.40402508    0.00000000
                                                     2        2.0186000       62.58111572    0.00000000
                                                     2        3.4391999      255.44717407    0.00000000
                                                     2        5.1578999     -161.80647278    0.00000000
                                                     2        2.5149000     -175.77076721    0.00000000
                                                     1        8.0623999       63.62079239    0.00000000
                                                     0       41.0284996        6.75031996    0.00000000
                                      F - G
                                                     2        0.4335000      -47.60779953    0.00000000
                                                     2        0.5097000      176.31802368    0.00000000
                                                     2        0.5796000     -168.67689514    0.00000000
                                                     2        0.7711000       54.49244690    0.00000000
                                                     2        2.5934999       37.71539307    0.00000000
                                                     2        8.3907003      -24.13967514    0.00000000
                                                     1        6.9294000       49.16802216    0.00000000
                                                     0       22.2588997        4.75958586    0.00000000
    4         79           11
                                      G and up 
                                                     2        0.9657000       -0.98690200    0.00000000
                                                     2        2.2904000       -9.68630600    0.00000000
                                                     2        6.4383998      -32.57246399    0.00000000
                                                     2       16.3645992     -118.53087616    0.00000000
                                                     2       55.9892998     -286.25463867    0.00000000
                                                     1      171.1013947      -51.27423096    0.00000000
                                      S - G
                                                     2        1.2248000      -84.96929932    0.00000000
                                                     2        1.4336000      280.17764282    0.00000000
                                                     2        1.8929000     -354.64355469    0.00000000
                                                     2        2.6963000      334.33190918    0.00000000
                                                     2        3.9899001     -219.39260864    0.00000000
                                                     2        6.0054998      170.85874939    0.00000000
                                                     1       14.5825996       56.33872986    0.00000000
                                                     0       39.3106995        6.40929985    0.00000000
                                      P - G
                                                     2        0.9064000       -6.91190100    0.00000000
                                                     2        1.0311000       72.12546539    0.00000000
                                                     2        1.3287000     -114.97533417    0.00000000
                                                     2        1.9037000      123.61668396    0.00000000
                                                     2        2.8364000      -71.13571167    0.00000000
                                                     2        4.5883999       79.01660156    0.00000000
                                                     1       11.1981001       51.28700638    0.00000000
                                                     0       32.2957001        5.65198278    0.00000000
                                      D - G
                                                     2        0.2931000       -0.11365700    0.00000000
                                                     2        1.0301000       -2.40402508    0.00000000
                                                     2        2.0186000       62.58111572    0.00000000
                                                     2        3.4391999      255.44717407    0.00000000
                                                     2        5.1578999     -161.80647278    0.00000000
                                                     2        2.5149000     -175.77076721    0.00000000
                                                     1        8.0623999       63.62079239    0.00000000
                                                     0       41.0284996        6.75031996    0.00000000
                                      F - G
                                                     2        0.4335000      -47.60779953    0.00000000
                                                     2        0.5097000      176.31802368    0.00000000
                                                     2        0.5796000     -168.67689514    0.00000000
                                                     2        0.7711000       54.49244690    0.00000000
                                                     2        2.5934999       37.71539307    0.00000000
                                                     2        8.3907003      -24.13967514    0.00000000
                                                     1        6.9294000       49.16802216    0.00000000
                                                     0       22.2588997        4.75958586    0.00000000
    5         79           11
                                      G and up 
                                                     2        0.9657000       -0.98690200    0.00000000
                                                     2        2.2904000       -9.68630600    0.00000000
                                                     2        6.4383998      -32.57246399    0.00000000
                                                     2       16.3645992     -118.53087616    0.00000000
                                                     2       55.9892998     -286.25463867    0.00000000
                                                     1      171.1013947      -51.27423096    0.00000000
                                      S - G
                                                     2        1.2248000      -84.96929932    0.00000000
                                                     2        1.4336000      280.17764282    0.00000000
                                                     2        1.8929000     -354.64355469    0.00000000
                                                     2        2.6963000      334.33190918    0.00000000
                                                     2        3.9899001     -219.39260864    0.00000000
                                                     2        6.0054998      170.85874939    0.00000000
                                                     1       14.5825996       56.33872986    0.00000000
                                                     0       39.3106995        6.40929985    0.00000000
                                      P - G
                                                     2        0.9064000       -6.91190100    0.00000000
                                                     2        1.0311000       72.12546539    0.00000000
                                                     2        1.3287000     -114.97533417    0.00000000
                                                     2        1.9037000      123.61668396    0.00000000
                                                     2        2.8364000      -71.13571167    0.00000000
                                                     2        4.5883999       79.01660156    0.00000000
                                                     1       11.1981001       51.28700638    0.00000000
                                                     0       32.2957001        5.65198278    0.00000000
                                      D - G
                                                     2        0.2931000       -0.11365700    0.00000000
                                                     2        1.0301000       -2.40402508    0.00000000
                                                     2        2.0186000       62.58111572    0.00000000
                                                     2        3.4391999      255.44717407    0.00000000
                                                     2        5.1578999     -161.80647278    0.00000000
                                                     2        2.5149000     -175.77076721    0.00000000
                                                     1        8.0623999       63.62079239    0.00000000
                                                     0       41.0284996        6.75031996    0.00000000
                                      F - G
                                                     2        0.4335000      -47.60779953    0.00000000
                                                     2        0.5097000      176.31802368    0.00000000
                                                     2        0.5796000     -168.67689514    0.00000000
                                                     2        0.7711000       54.49244690    0.00000000
                                                     2        2.5934999       37.71539307    0.00000000
                                                     2        8.3907003      -24.13967514    0.00000000
                                                     1        6.9294000       49.16802216    0.00000000
                                                     0       22.2588997        4.75958586    0.00000000
    6         79           11
                                      G and up 
                                                     2        0.9657000       -0.98690200    0.00000000
                                                     2        2.2904000       -9.68630600    0.00000000
                                                     2        6.4383998      -32.57246399    0.00000000
                                                     2       16.3645992     -118.53087616    0.00000000
                                                     2       55.9892998     -286.25463867    0.00000000
                                                     1      171.1013947      -51.27423096    0.00000000
                                      S - G
                                                     2        1.2248000      -84.96929932    0.00000000
                                                     2        1.4336000      280.17764282    0.00000000
                                                     2        1.8929000     -354.64355469    0.00000000
                                                     2        2.6963000      334.33190918    0.00000000
                                                     2        3.9899001     -219.39260864    0.00000000
                                                     2        6.0054998      170.85874939    0.00000000
                                                     1       14.5825996       56.33872986    0.00000000
                                                     0       39.3106995        6.40929985    0.00000000
                                      P - G
                                                     2        0.9064000       -6.91190100    0.00000000
                                                     2        1.0311000       72.12546539    0.00000000
                                                     2        1.3287000     -114.97533417    0.00000000
                                                     2        1.9037000      123.61668396    0.00000000
                                                     2        2.8364000      -71.13571167    0.00000000
                                                     2        4.5883999       79.01660156    0.00000000
                                                     1       11.1981001       51.28700638    0.00000000
                                                     0       32.2957001        5.65198278    0.00000000
                                      D - G
                                                     2        0.2931000       -0.11365700    0.00000000
                                                     2        1.0301000       -2.40402508    0.00000000
                                                     2        2.0186000       62.58111572    0.00000000
                                                     2        3.4391999      255.44717407    0.00000000
                                                     2        5.1578999     -161.80647278    0.00000000
                                                     2        2.5149000     -175.77076721    0.00000000
                                                     1        8.0623999       63.62079239    0.00000000
                                                     0       41.0284996        6.75031996    0.00000000
                                      F - G
                                                     2        0.4335000      -47.60779953    0.00000000
                                                     2        0.5097000      176.31802368    0.00000000
                                                     2        0.5796000     -168.67689514    0.00000000
                                                     2        0.7711000       54.49244690    0.00000000
                                                     2        2.5934999       37.71539307    0.00000000
                                                     2        8.3907003      -24.13967514    0.00000000
                                                     1        6.9294000       49.16802216    0.00000000
                                                     0       22.2588997        4.75958586    0.00000000
    7         79           11
                                      G and up 
                                                     2        0.9657000       -0.98690200    0.00000000
                                                     2        2.2904000       -9.68630600    0.00000000
                                                     2        6.4383998      -32.57246399    0.00000000
                                                     2       16.3645992     -118.53087616    0.00000000
                                                     2       55.9892998     -286.25463867    0.00000000
                                                     1      171.1013947      -51.27423096    0.00000000
                                      S - G
                                                     2        1.2248000      -84.96929932    0.00000000
                                                     2        1.4336000      280.17764282    0.00000000
                                                     2        1.8929000     -354.64355469    0.00000000
                                                     2        2.6963000      334.33190918    0.00000000
                                                     2        3.9899001     -219.39260864    0.00000000
                                                     2        6.0054998      170.85874939    0.00000000
                                                     1       14.5825996       56.33872986    0.00000000
                                                     0       39.3106995        6.40929985    0.00000000
                                      P - G
                                                     2        0.9064000       -6.91190100    0.00000000
                                                     2        1.0311000       72.12546539    0.00000000
                                                     2        1.3287000     -114.97533417    0.00000000
                                                     2        1.9037000      123.61668396    0.00000000
                                                     2        2.8364000      -71.13571167    0.00000000
                                                     2        4.5883999       79.01660156    0.00000000
                                                     1       11.1981001       51.28700638    0.00000000
                                                     0       32.2957001        5.65198278    0.00000000
                                      D - G
                                                     2        0.2931000       -0.11365700    0.00000000
                                                     2        1.0301000       -2.40402508    0.00000000
                                                     2        2.0186000       62.58111572    0.00000000
                                                     2        3.4391999      255.44717407    0.00000000
                                                     2        5.1578999     -161.80647278    0.00000000
                                                     2        2.5149000     -175.77076721    0.00000000
                                                     1        8.0623999       63.62079239    0.00000000
                                                     0       41.0284996        6.75031996    0.00000000
                                      F - G
                                                     2        0.4335000      -47.60779953    0.00000000
                                                     2        0.5097000      176.31802368    0.00000000
                                                     2        0.5796000     -168.67689514    0.00000000
                                                     2        0.7711000       54.49244690    0.00000000
                                                     2        2.5934999       37.71539307    0.00000000
                                                     2        8.3907003      -24.13967514    0.00000000
                                                     1        6.9294000       49.16802216    0.00000000
                                                     0       22.2588997        4.75958586    0.00000000
    8         79           11
                                      G and up 
                                                     2        0.9657000       -0.98690200    0.00000000
                                                     2        2.2904000       -9.68630600    0.00000000
                                                     2        6.4383998      -32.57246399    0.00000000
                                                     2       16.3645992     -118.53087616    0.00000000
                                                     2       55.9892998     -286.25463867    0.00000000
                                                     1      171.1013947      -51.27423096    0.00000000
                                      S - G
                                                     2        1.2248000      -84.96929932    0.00000000
                                                     2        1.4336000      280.17764282    0.00000000
                                                     2        1.8929000     -354.64355469    0.00000000
                                                     2        2.6963000      334.33190918    0.00000000
                                                     2        3.9899001     -219.39260864    0.00000000
                                                     2        6.0054998      170.85874939    0.00000000
                                                     1       14.5825996       56.33872986    0.00000000
                                                     0       39.3106995        6.40929985    0.00000000
                                      P - G
                                                     2        0.9064000       -6.91190100    0.00000000
                                                     2        1.0311000       72.12546539    0.00000000
                                                     2        1.3287000     -114.97533417    0.00000000
                                                     2        1.9037000      123.61668396    0.00000000
                                                     2        2.8364000      -71.13571167    0.00000000
                                                     2        4.5883999       79.01660156    0.00000000
                                                     1       11.1981001       51.28700638    0.00000000
                                                     0       32.2957001        5.65198278    0.00000000
                                      D - G
                                                     2        0.2931000       -0.11365700    0.00000000
                                                     2        1.0301000       -2.40402508    0.00000000
                                                     2        2.0186000       62.58111572    0.00000000
                                                     2        3.4391999      255.44717407    0.00000000
                                                     2        5.1578999     -161.80647278    0.00000000
                                                     2        2.5149000     -175.77076721    0.00000000
                                                     1        8.0623999       63.62079239    0.00000000
                                                     0       41.0284996        6.75031996    0.00000000
                                      F - G
                                                     2        0.4335000      -47.60779953    0.00000000
                                                     2        0.5097000      176.31802368    0.00000000
                                                     2        0.5796000     -168.67689514    0.00000000
                                                     2        0.7711000       54.49244690    0.00000000
                                                     2        2.5934999       37.71539307    0.00000000
                                                     2        8.3907003      -24.13967514    0.00000000
                                                     1        6.9294000       49.16802216    0.00000000
                                                     0       22.2588997        4.75958586    0.00000000
    9         79           11
                                      G and up 
                                                     2        0.9657000       -0.98690200    0.00000000
                                                     2        2.2904000       -9.68630600    0.00000000
                                                     2        6.4383998      -32.57246399    0.00000000
                                                     2       16.3645992     -118.53087616    0.00000000
                                                     2       55.9892998     -286.25463867    0.00000000
                                                     1      171.1013947      -51.27423096    0.00000000
                                      S - G
                                                     2        1.2248000      -84.96929932    0.00000000
                                                     2        1.4336000      280.17764282    0.00000000
                                                     2        1.8929000     -354.64355469    0.00000000
                                                     2        2.6963000      334.33190918    0.00000000
                                                     2        3.9899001     -219.39260864    0.00000000
                                                     2        6.0054998      170.85874939    0.00000000
                                                     1       14.5825996       56.33872986    0.00000000
                                                     0       39.3106995        6.40929985    0.00000000
                                      P - G
                                                     2        0.9064000       -6.91190100    0.00000000
                                                     2        1.0311000       72.12546539    0.00000000
                                                     2        1.3287000     -114.97533417    0.00000000
                                                     2        1.9037000      123.61668396    0.00000000
                                                     2        2.8364000      -71.13571167    0.00000000
                                                     2        4.5883999       79.01660156    0.00000000
                                                     1       11.1981001       51.28700638    0.00000000
                                                     0       32.2957001        5.65198278    0.00000000
                                      D - G
                                                     2        0.2931000       -0.11365700    0.00000000
                                                     2        1.0301000       -2.40402508    0.00000000
                                                     2        2.0186000       62.58111572    0.00000000
                                                     2        3.4391999      255.44717407    0.00000000
                                                     2        5.1578999     -161.80647278    0.00000000
                                                     2        2.5149000     -175.77076721    0.00000000
                                                     1        8.0623999       63.62079239    0.00000000
                                                     0       41.0284996        6.75031996    0.00000000
                                      F - G
                                                     2        0.4335000      -47.60779953    0.00000000
                                                     2        0.5097000      176.31802368    0.00000000
                                                     2        0.5796000     -168.67689514    0.00000000
                                                     2        0.7711000       54.49244690    0.00000000
                                                     2        2.5934999       37.71539307    0.00000000
                                                     2        8.3907003      -24.13967514    0.00000000
                                                     1        6.9294000       49.16802216    0.00000000
                                                     0       22.2588997        4.75958586    0.00000000
   10         79           11
                                      G and up 
                                                     2        0.9657000       -0.98690200    0.00000000
                                                     2        2.2904000       -9.68630600    0.00000000
                                                     2        6.4383998      -32.57246399    0.00000000
                                                     2       16.3645992     -118.53087616    0.00000000
                                                     2       55.9892998     -286.25463867    0.00000000
                                                     1      171.1013947      -51.27423096    0.00000000
                                      S - G
                                                     2        1.2248000      -84.96929932    0.00000000
                                                     2        1.4336000      280.17764282    0.00000000
                                                     2        1.8929000     -354.64355469    0.00000000
                                                     2        2.6963000      334.33190918    0.00000000
                                                     2        3.9899001     -219.39260864    0.00000000
                                                     2        6.0054998      170.85874939    0.00000000
                                                     1       14.5825996       56.33872986    0.00000000
                                                     0       39.3106995        6.40929985    0.00000000
                                      P - G
                                                     2        0.9064000       -6.91190100    0.00000000
                                                     2        1.0311000       72.12546539    0.00000000
                                                     2        1.3287000     -114.97533417    0.00000000
                                                     2        1.9037000      123.61668396    0.00000000
                                                     2        2.8364000      -71.13571167    0.00000000
                                                     2        4.5883999       79.01660156    0.00000000
                                                     1       11.1981001       51.28700638    0.00000000
                                                     0       32.2957001        5.65198278    0.00000000
                                      D - G
                                                     2        0.2931000       -0.11365700    0.00000000
                                                     2        1.0301000       -2.40402508    0.00000000
                                                     2        2.0186000       62.58111572    0.00000000
                                                     2        3.4391999      255.44717407    0.00000000
                                                     2        5.1578999     -161.80647278    0.00000000
                                                     2        2.5149000     -175.77076721    0.00000000
                                                     1        8.0623999       63.62079239    0.00000000
                                                     0       41.0284996        6.75031996    0.00000000
                                      F - G
                                                     2        0.4335000      -47.60779953    0.00000000
                                                     2        0.5097000      176.31802368    0.00000000
                                                     2        0.5796000     -168.67689514    0.00000000
                                                     2        0.7711000       54.49244690    0.00000000
                                                     2        2.5934999       37.71539307    0.00000000
                                                     2        8.3907003      -24.13967514    0.00000000
                                                     1        6.9294000       49.16802216    0.00000000
                                                     0       22.2588997        4.75958586    0.00000000
   11         79           11
                                      G and up 
                                                     2        0.9657000       -0.98690200    0.00000000
                                                     2        2.2904000       -9.68630600    0.00000000
                                                     2        6.4383998      -32.57246399    0.00000000
                                                     2       16.3645992     -118.53087616    0.00000000
                                                     2       55.9892998     -286.25463867    0.00000000
                                                     1      171.1013947      -51.27423096    0.00000000
                                      S - G
                                                     2        1.2248000      -84.96929932    0.00000000
                                                     2        1.4336000      280.17764282    0.00000000
                                                     2        1.8929000     -354.64355469    0.00000000
                                                     2        2.6963000      334.33190918    0.00000000
                                                     2        3.9899001     -219.39260864    0.00000000
                                                     2        6.0054998      170.85874939    0.00000000
                                                     1       14.5825996       56.33872986    0.00000000
                                                     0       39.3106995        6.40929985    0.00000000
                                      P - G
                                                     2        0.9064000       -6.91190100    0.00000000
                                                     2        1.0311000       72.12546539    0.00000000
                                                     2        1.3287000     -114.97533417    0.00000000
                                                     2        1.9037000      123.61668396    0.00000000
                                                     2        2.8364000      -71.13571167    0.00000000
                                                     2        4.5883999       79.01660156    0.00000000
                                                     1       11.1981001       51.28700638    0.00000000
                                                     0       32.2957001        5.65198278    0.00000000
                                      D - G
                                                     2        0.2931000       -0.11365700    0.00000000
                                                     2        1.0301000       -2.40402508    0.00000000
                                                     2        2.0186000       62.58111572    0.00000000
                                                     2        3.4391999      255.44717407    0.00000000
                                                     2        5.1578999     -161.80647278    0.00000000
                                                     2        2.5149000     -175.77076721    0.00000000
                                                     1        8.0623999       63.62079239    0.00000000
                                                     0       41.0284996        6.75031996    0.00000000
                                      F - G
                                                     2        0.4335000      -47.60779953    0.00000000
                                                     2        0.5097000      176.31802368    0.00000000
                                                     2        0.5796000     -168.67689514    0.00000000
                                                     2        0.7711000       54.49244690    0.00000000
                                                     2        2.5934999       37.71539307    0.00000000
                                                     2        8.3907003      -24.13967514    0.00000000
                                                     1        6.9294000       49.16802216    0.00000000
                                                     0       22.2588997        4.75958586    0.00000000
   12         79           11
                                      G and up 
                                                     2        0.9657000       -0.98690200    0.00000000
                                                     2        2.2904000       -9.68630600    0.00000000
                                                     2        6.4383998      -32.57246399    0.00000000
                                                     2       16.3645992     -118.53087616    0.00000000
                                                     2       55.9892998     -286.25463867    0.00000000
                                                     1      171.1013947      -51.27423096    0.00000000
                                      S - G
                                                     2        1.2248000      -84.96929932    0.00000000
                                                     2        1.4336000      280.17764282    0.00000000
                                                     2        1.8929000     -354.64355469    0.00000000
                                                     2        2.6963000      334.33190918    0.00000000
                                                     2        3.9899001     -219.39260864    0.00000000
                                                     2        6.0054998      170.85874939    0.00000000
                                                     1       14.5825996       56.33872986    0.00000000
                                                     0       39.3106995        6.40929985    0.00000000
                                      P - G
                                                     2        0.9064000       -6.91190100    0.00000000
                                                     2        1.0311000       72.12546539    0.00000000
                                                     2        1.3287000     -114.97533417    0.00000000
                                                     2        1.9037000      123.61668396    0.00000000
                                                     2        2.8364000      -71.13571167    0.00000000
                                                     2        4.5883999       79.01660156    0.00000000
                                                     1       11.1981001       51.28700638    0.00000000
                                                     0       32.2957001        5.65198278    0.00000000
                                      D - G
                                                     2        0.2931000       -0.11365700    0.00000000
                                                     2        1.0301000       -2.40402508    0.00000000
                                                     2        2.0186000       62.58111572    0.00000000
                                                     2        3.4391999      255.44717407    0.00000000
                                                     2        5.1578999     -161.80647278    0.00000000
                                                     2        2.5149000     -175.77076721    0.00000000
                                                     1        8.0623999       63.62079239    0.00000000
                                                     0       41.0284996        6.75031996    0.00000000
                                      F - G
                                                     2        0.4335000      -47.60779953    0.00000000
                                                     2        0.5097000      176.31802368    0.00000000
                                                     2        0.5796000     -168.67689514    0.00000000
                                                     2        0.7711000       54.49244690    0.00000000
                                                     2        2.5934999       37.71539307    0.00000000
                                                     2        8.3907003      -24.13967514    0.00000000
                                                     1        6.9294000       49.16802216    0.00000000
                                                     0       22.2588997        4.75958586    0.00000000
   13         79           11
                                      G and up 
                                                     2        0.9657000       -0.98690200    0.00000000
                                                     2        2.2904000       -9.68630600    0.00000000
                                                     2        6.4383998      -32.57246399    0.00000000
                                                     2       16.3645992     -118.53087616    0.00000000
                                                     2       55.9892998     -286.25463867    0.00000000
                                                     1      171.1013947      -51.27423096    0.00000000
                                      S - G
                                                     2        1.2248000      -84.96929932    0.00000000
                                                     2        1.4336000      280.17764282    0.00000000
                                                     2        1.8929000     -354.64355469    0.00000000
                                                     2        2.6963000      334.33190918    0.00000000
                                                     2        3.9899001     -219.39260864    0.00000000
                                                     2        6.0054998      170.85874939    0.00000000
                                                     1       14.5825996       56.33872986    0.00000000
                                                     0       39.3106995        6.40929985    0.00000000
                                      P - G
                                                     2        0.9064000       -6.91190100    0.00000000
                                                     2        1.0311000       72.12546539    0.00000000
                                                     2        1.3287000     -114.97533417    0.00000000
                                                     2        1.9037000      123.61668396    0.00000000
                                                     2        2.8364000      -71.13571167    0.00000000
                                                     2        4.5883999       79.01660156    0.00000000
                                                     1       11.1981001       51.28700638    0.00000000
                                                     0       32.2957001        5.65198278    0.00000000
                                      D - G
                                                     2        0.2931000       -0.11365700    0.00000000
                                                     2        1.0301000       -2.40402508    0.00000000
                                                     2        2.0186000       62.58111572    0.00000000
                                                     2        3.4391999      255.44717407    0.00000000
                                                     2        5.1578999     -161.80647278    0.00000000
                                                     2        2.5149000     -175.77076721    0.00000000
                                                     1        8.0623999       63.62079239    0.00000000
                                                     0       41.0284996        6.75031996    0.00000000
                                      F - G
                                                     2        0.4335000      -47.60779953    0.00000000
                                                     2        0.5097000      176.31802368    0.00000000
                                                     2        0.5796000     -168.67689514    0.00000000
                                                     2        0.7711000       54.49244690    0.00000000
                                                     2        2.5934999       37.71539307    0.00000000
                                                     2        8.3907003      -24.13967514    0.00000000
                                                     1        6.9294000       49.16802216    0.00000000
                                                     0       22.2588997        4.75958586    0.00000000
   14         79           11
                                      G and up 
                                                     2        0.9657000       -0.98690200    0.00000000
                                                     2        2.2904000       -9.68630600    0.00000000
                                                     2        6.4383998      -32.57246399    0.00000000
                                                     2       16.3645992     -118.53087616    0.00000000
                                                     2       55.9892998     -286.25463867    0.00000000
                                                     1      171.1013947      -51.27423096    0.00000000
                                      S - G
                                                     2        1.2248000      -84.96929932    0.00000000
                                                     2        1.4336000      280.17764282    0.00000000
                                                     2        1.8929000     -354.64355469    0.00000000
                                                     2        2.6963000      334.33190918    0.00000000
                                                     2        3.9899001     -219.39260864    0.00000000
                                                     2        6.0054998      170.85874939    0.00000000
                                                     1       14.5825996       56.33872986    0.00000000
                                                     0       39.3106995        6.40929985    0.00000000
                                      P - G
                                                     2        0.9064000       -6.91190100    0.00000000
                                                     2        1.0311000       72.12546539    0.00000000
                                                     2        1.3287000     -114.97533417    0.00000000
                                                     2        1.9037000      123.61668396    0.00000000
                                                     2        2.8364000      -71.13571167    0.00000000
                                                     2        4.5883999       79.01660156    0.00000000
                                                     1       11.1981001       51.28700638    0.00000000
                                                     0       32.2957001        5.65198278    0.00000000
                                      D - G
                                                     2        0.2931000       -0.11365700    0.00000000
                                                     2        1.0301000       -2.40402508    0.00000000
                                                     2        2.0186000       62.58111572    0.00000000
                                                     2        3.4391999      255.44717407    0.00000000
                                                     2        5.1578999     -161.80647278    0.00000000
                                                     2        2.5149000     -175.77076721    0.00000000
                                                     1        8.0623999       63.62079239    0.00000000
                                                     0       41.0284996        6.75031996    0.00000000
                                      F - G
                                                     2        0.4335000      -47.60779953    0.00000000
                                                     2        0.5097000      176.31802368    0.00000000
                                                     2        0.5796000     -168.67689514    0.00000000
                                                     2        0.7711000       54.49244690    0.00000000
                                                     2        2.5934999       37.71539307    0.00000000
                                                     2        8.3907003      -24.13967514    0.00000000
                                                     1        6.9294000       49.16802216    0.00000000
                                                     0       22.2588997        4.75958586    0.00000000
   15         79           11
                                      G and up 
                                                     2        0.9657000       -0.98690200    0.00000000
                                                     2        2.2904000       -9.68630600    0.00000000
                                                     2        6.4383998      -32.57246399    0.00000000
                                                     2       16.3645992     -118.53087616    0.00000000
                                                     2       55.9892998     -286.25463867    0.00000000
                                                     1      171.1013947      -51.27423096    0.00000000
                                      S - G
                                                     2        1.2248000      -84.96929932    0.00000000
                                                     2        1.4336000      280.17764282    0.00000000
                                                     2        1.8929000     -354.64355469    0.00000000
                                                     2        2.6963000      334.33190918    0.00000000
                                                     2        3.9899001     -219.39260864    0.00000000
                                                     2        6.0054998      170.85874939    0.00000000
                                                     1       14.5825996       56.33872986    0.00000000
                                                     0       39.3106995        6.40929985    0.00000000
                                      P - G
                                                     2        0.9064000       -6.91190100    0.00000000
                                                     2        1.0311000       72.12546539    0.00000000
                                                     2        1.3287000     -114.97533417    0.00000000
                                                     2        1.9037000      123.61668396    0.00000000
                                                     2        2.8364000      -71.13571167    0.00000000
                                                     2        4.5883999       79.01660156    0.00000000
                                                     1       11.1981001       51.28700638    0.00000000
[...]
  ****************************************************************** 
 
  ****************************************************************** 
  *                                                                * 
  *              Initializing ANT.G09 modules                      * 
  *                                                                * 
  ****************************************************************** 
 
 Scanning Au9-Au4-Au-Au4-Au9.ant file for parameter specifications...
 Done.
 ****************************
 Basic calculation parameters
 ****************************
 ALPHA      =    2.9999999999999999E-002
 NPULAY     =                         4
 CHARGEACC  =    1.0000000000000001E-005  %
 FERMIACC   =    1.0000000000000001E-005  %
 PACC       =    9.9999999999999995E-008  %
 FULLACC    =   F
 MAX        =                        10
 SELFACC    =    9.9999999999999995E-007
 SMALL      =    0.1000000000000000     
 SMALLD     =    0.1000000000000000       A
 BIASVOLT   =     0.000000000000000       V
 QEXCESS    =     0.000000000000000      electrons
 ETA        =    1.0000000000000000E-010
 GLUE       =     1.000000000000000     
 FERMISTART =    -5.000000000000000       eV
 SOC        =   F
 SOCFAC     =                         1
 SOC_CFF_P  =     0.000000000000000       eV
 SOC_CFF_D  =     0.000000000000000       eV
 SOC_CFF_F  =     0.000000000000000       eV
 THETA      =     0.000000000000000       degrees
 PHI        =     0.000000000000000       degrees
 SL         =    1.0000000000000000E-003
 DMIMAG     =   F
 FMIXING    =   F
 ************************
 Bethe lattice parameters
 ************************
 TYPE1      = BETHE     
 TYPE2      = BETHE     
 BLPAR1     = Papacon             
 BLPAR2     = Papacon             
 NEMBED1    = ? 
 NEMBED2    = ? 
 NATOMEL1   = ? 
 NATOMEL2   = ? 
 OVERLAP    = System Overlap
 *************************
 Spin transport parameters
 *************************
 SWOFFSPL   =    1.0000000000000000E-003
 NSPINLOCK  =                         0
 NALPHA     =                        -1
 NBETA      =                        -1
 DU         =   F
 UD         =   F
 DD         =   F
 MRSTART    =                         0
 SPINDEL    =   F
 SPINEDIT   =                         0
 SPINROT    =                         0
 ***********************
 Correlations parameters
 ***********************
 CORRBLOCKS =                         0
 PORTHO     =   F
 HYBFUNC    =   F
 DFT+U      =   F
 DIAGCORRBL =   F
 *****************
 Output parameters
 *****************
 HAMILTON   =   F
 MULLIKEN   =   F
 HTRANSM    =   F
 ESTEP      =    1.0000000000000000E-002
 DOSENERGY  =     0.000000000000000     
 EW1        =    -3.000000000000000     
 EW2        =     3.000000000000000     
 LDOS_BEG   =                         1
 LDOS_END   =                         0
 RTM_BEG    =                         1
 RTM_END    =                         0
 NCHANNELS  =                         0
 LEADDOS    =   F
 ANT1D      =   F
 PRTHATOM   =                         1
 -------------------
 Initializing device
 -------------------
 ----------------------------------------------------------
 Analyzing cluster for the connection of the  Bethe Lattice
 ----------------------------------------------------------
 
 Atom type of lead 1: Au
 Atom type of lead 2: Au
 
    1   79  11.    9    1    9
    2   79  11.    9   10   18
    3   79  11.    9   19   27
    4   79  11.    9   28   36
    5   79  11.    9   37   45
    6   79  11.    9   46   54
    7   79  11.    9   55   63
    8   79  11.    9   64   72
    9   79  11.    9   73   81
   10   79  11.    9   82   90
   11   79  11.    9   91   99
   12   79  11.    9  100  108
   13   79  11.    9  109  117
   14   79  11.    9  118  126
   15   79  11.    9  127  135
   16   79  11.    9  136  144
   17   79  11.    9  145  153
   18   79  11.    9  154  162
   19   79  11.    9  163  171
   20   79  11.    9  172  180
   21   79  11.    9  181  189
   22   79  11.    9  190  198
   23   79  11.    9  199  207
   24   79  11.    9  208  216
   25   79  11.    9  217  225
   26   79  11.    9  226  234
   27   79  11.    9  235  243
 
  Center of charge:
   0.000000   0.000000   4.724315
 
  Atoms in left electrode:                       13
   1  Au   0.000000   0.000000  13.228083
   2  Au  -3.779452   3.779452  13.228083
   3  Au   3.779452   3.779452  13.228083
   4  Au  -3.779452  -3.779452  13.228083
   5  Au   3.779452  -3.779452  13.228083
   6  Au  -7.558905   0.000000  13.228083
   7  Au   0.000000   7.558905  13.228083
   8  Au   7.558905   0.000000  13.228083
   9  Au   0.000000  -7.558905  13.228083
  10  Au   0.000000   3.779452   9.448631
  11  Au  -3.779452   0.000000   9.448631
  12  Au   0.000000  -3.779452   9.448631
  13  Au   3.779452   0.000000   9.448631
 
  Atoms in molecule:                        0
 
  Atoms in right electrode:                       14
  14  Au   0.000000  -7.558905  -3.779452
  15  Au   7.558905   0.000000  -3.779452
  16  Au   0.000000   7.558905  -3.779452
  17  Au  -7.558905   0.000000  -3.779452
  18  Au   3.779452  -3.779452  -3.779452
  19  Au  -3.779452  -3.779452  -3.779452
  20  Au   3.779452   3.779452  -3.779452
  21  Au  -3.779452   3.779452  -3.779452
  22  Au   0.000000   0.000000  -3.779452
  23  Au   3.779452   0.000000   0.000000
  24  Au   0.000000  -3.779452   0.000000
  25  Au  -3.779452   0.000000   0.000000
  26  Au   0.000000   3.779452   0.000000
  27  Au   0.000000   0.000000   4.724315
 
 Plane 1
 with normal vector (  0.000000,  0.000000,  1.000000 )
 has    9 atoms:
    1    1   0.000000   0.000000  13.228083
    2    1  -3.779452   3.779452  13.228083
    3    1   3.779452   3.779452  13.228083
    4    1  -3.779452  -3.779452  13.228083
    5    1   3.779452  -3.779452  13.228083
    6    1  -7.558905   0.000000  13.228083
    7    1   0.000000   7.558905  13.228083
    8    1   7.558905   0.000000  13.228083
    9    1   0.000000  -7.558905  13.228083
 
 Plane 2
 with normal vector (  0.000000,  0.000000, -1.000000 )
 has    9 atoms:
   19    2   0.000000   0.000000  -3.779452
   20    2  -3.779452   3.779452  -3.779452
   21    2   3.779452   3.779452  -3.779452
   22    2  -3.779452  -3.779452  -3.779452
   23    2   3.779452  -3.779452  -3.779452
   24    2  -7.558905   0.000000  -3.779452
   25    2   0.000000   7.558905  -3.779452
   26    2   7.558905   0.000000  -3.779452
   27    2   0.000000  -7.558905  -3.779452
 
 Finding lattice directions in electrode 1 ....
 Near-neighbor distance at electrode 1 =     2.828442044700474     
Found         12  lattice directions
  -0.70711   0.70711   0.00000
   0.70711  -0.70711   0.00000
   0.70711   0.70711   0.00000
  -0.70711  -0.70711   0.00000
   0.00000   0.70711  -0.70711
   0.00000  -0.70711   0.70711
  -0.70711   0.00000  -0.70711
   0.70711   0.00000   0.70711
   0.00000  -0.70711  -0.70711
   0.00000   0.70711   0.70711
   0.70711   0.00000  -0.70711
  -0.70711   0.00000   0.70711
 Finding lattice directions in electrode 2 ....
 Near-neighbor distance at electrode 2 =     2.828442044700474     
Found         12  lattice directions
   0.70711   0.70711   0.00000
  -0.70711  -0.70711   0.00000
  -0.70711   0.70711   0.00000
   0.70711  -0.70711   0.00000
   0.00000   0.70711   0.70711
   0.00000  -0.70711  -0.70711
  -0.70711   0.00000   0.70711
   0.70711   0.00000  -0.70711
   0.00000  -0.70711   0.70711
   0.00000   0.70711  -0.70711
   0.70711   0.00000   0.70711
  -0.70711   0.00000  -0.70711
 
 -----------------------------------------------------
 Inititalizing Bethe lattice for electrode No. 1
 -----------------------------------------------------
 
 Open file 
 /home/palacios/ANT.G/pgi/ANT.G-2.5.0/BLDAT/BL079.dat                                                
  to read Bethe lattice parameters.
 Reading Papacon                                            parameters.
 es        =   0.1462951858205988     
 ep        =   0.7766100140948970     
 edd       =  -6.3024450905033195E-003
 edt       =  -6.3024450905033195E-003
 sss       =  -8.6005177009077297E-002
 sps       =   7.0988773108470835E-002
 pps       =   0.1232006590220451     
 ppp       =   9.1176420987007945E-003
 sds       =  -4.5850378551635734E-002
 pds       =  -6.0239724360703753E-002
 pdp       =   1.4995218799923516E-002
 dds       =  -5.0431404373097746E-002
 ddp       =   2.8321000768526342E-002
 ddd       =  -3.8139645624318129E-003
 S_sss     =   0.1066464722283674     
 S_sps     =  -2.5486530408298212E-002
 S_pps     =  -3.7515334367475776E-002
 S_ppp     =   1.8544540540832353E-002
 S_sds     =   1.1315144159208514E-002
 S_pds     =   6.2270566775070930E-002
 S_pdp     =  -6.3206070557591332E-003
 S_dds     =   2.3016521466533529E-002
 S_ddp     =  -2.8039277820256420E-002
 S_ddd     =   8.4245392138668879E-004
 Done.
 Setting Fermi level to zero for Lead                         1
 Searching boundaries [EMin, EMax] such that Int[EMin, EMax] DOS(E) = 
                       18  ( Number of spin orbitals ).
 EMin=   -10.00000000000000        Charge=   1.6737623745655128E-005
 EMax=    20.00000000000000        Charge=    17.99998590562411     
 Now searching for Fermi energy...
 Secant method:
 Bethe lattice Fermi energy =     2.708929610926656     
 
 -----------------------------------------------------
 Inititalizing Bethe lattice for electrode No. 2
 -----------------------------------------------------
 
 Open file 
 /home/palacios/ANT.G/pgi/ANT.G-2.5.0/BLDAT/BL079.dat                                                
  to read Bethe lattice parameters.
 Reading Papacon                                            parameters.
 es        =   0.1462951858205988     
 ep        =   0.7766100140948970     
 edd       =  -6.3024450905033195E-003
 edt       =  -6.3024450905033195E-003
 sss       =  -8.6005177009077297E-002
 sps       =   7.0988773108470835E-002
 pps       =   0.1232006590220451     
 ppp       =   9.1176420987007945E-003
 sds       =  -4.5850378551635734E-002
 pds       =  -6.0239724360703753E-002
 pdp       =   1.4995218799923516E-002
 dds       =  -5.0431404373097746E-002
 ddp       =   2.8321000768526342E-002
 ddd       =  -3.8139645624318129E-003
 S_sss     =   0.1066464722283674     
 S_sps     =  -2.5486530408298212E-002
 S_pps     =  -3.7515334367475776E-002
 S_ppp     =   1.8544540540832353E-002
 S_sds     =   1.1315144159208514E-002
 S_pds     =   6.2270566775070930E-002
 S_pdp     =  -6.3206070557591332E-003
 S_dds     =   2.3016521466533529E-002
 S_ddp     =  -2.8039277820256420E-002
 S_ddd     =   8.4245392138668879E-004
 Done.
 Setting Fermi level to zero for Lead                         2
 Searching boundaries [EMin, EMax] such that Int[EMin, EMax] DOS(E) = 
                       18  ( Number of spin orbitals ).
 EMin=   -10.00000000000000        Charge=   1.6737623745655128E-005
 EMax=    20.00000000000000        Charge=    17.99998590562411     
 Now searching for Fermi energy...
 Secant method:
 Bethe lattice Fermi energy =     2.708929610926656     
 ---------------------------------------------------
  Details on device and contacting atoms -----------
 ---------------------------------------------------
 NEmbed(1) =                        9
 NEmbed(2) =                        9
 Number of electrons in neutral reduced device
 NCDEl =                       297
 First and last orbital in reduced device
 NCDAO1 =                         1
 NCDAO2 =                       243
 ---------------------------------------------------
 FoFJK:  IHMeth= 1 ICntrl=     500 DoSepK=F KAlg= 0 I1Cent=   0 FoldK=F
 IRaf= 990000000 NMat=   1 IRICut=       1 DoRegI=T DoRafI=F ISym2E= 0.
 FoFCou: FMM=F IPFlag=           0 FMFlag=      100000 FMFlg1=           0
         NFxFlg=           0 DoJE=T BraDBF=F KetDBF=F FulRan=T
         wScrn=  0.000000 ICntrl=     500 IOpCl=  0 I1Cent=           0 NGrid=           0
         NMat0=    1 NMatS0=      1 NMatT0=    0 NMatD0=    1 NMtDS0=    0 NMtDT0=    0
 Symmetry not used in FoFCou.
 Defaulting to unpruned grid for atomic number  79.
 Defaulting to unpruned grid for atomic number  79.
 Defaulting to unpruned grid for atomic number  79.
 Defaulting to unpruned grid for atomic number  79.
 E= -941.883429617125    
 DIIS: error= 1.45D-02 at cycle   1 NSaved=   1.
 NSaved= 1 IEnMin= 1 EnMin= -941.883429617125     IErMin= 1 ErrMin= 1.45D-02
 ErrMax= 1.45D-02  0.00D+00 EMaxC= 1.00D-01 BMatC= 5.06D-02 BMatP= 5.06D-02
 IDIUse=3 WtCom= 8.55D-01 WtEn= 1.45D-01
 Coeff-Com:  0.100D+01
 Coeff-En:   0.100D+01
 Coeff:      0.100D+01
 Gap=     0.007 Goal=   None    Shift=    0.000
 DSYEVD-2 returned Info=         487 IAlg= 4 N=   243 NDim=   243 NE2=      551413 trying  DSYEV.
 GapD=    0.007 DampG=0.250 DampE=0.250 DampFc=0.1250 IDamp=-1.
 Damping current iteration by 1.25D-01
 RMSDP=1.29D-02 MaxDP=3.07D-01              OVMax= 0.00D+00

 Cycle   2  Pass 1  IDiag  1:
 RMSU=  1.61D-03    CP:  9.99D-01
 E= -941.913728098291     Delta-E=       -0.030298481166 Rises=F Damp=T
 DIIS: error= 9.22D-03 at cycle   2 NSaved=   2.
 NSaved= 2 IEnMin= 2 EnMin= -941.913728098291     IErMin= 2 ErrMin= 9.22D-03
 ErrMax= 9.22D-03  0.00D+00 EMaxC= 1.00D-01 BMatC= 1.77D-02 BMatP= 5.06D-02
 IDIUse=3 WtCom= 9.08D-01 WtEn= 9.22D-02
 Coeff-Com: -0.886D+00 0.189D+01
 Coeff-En:   0.000D+00 0.100D+01
 Coeff:     -0.804D+00 0.180D+01
 Gap=     0.000 Goal=   None    Shift=    0.000
 RMSDP=4.20D-03 MaxDP=1.47D-01 DE=-3.03D-02 OVMax= 0.00D+00

 Cycle   3  Pass 1  IDiag  1:
 RMSU=  4.16D-03    CP:  1.01D+00  8.24D-01
 E= -941.925223310782     Delta-E=       -0.011495212490 Rises=F Damp=F
 DIIS: error= 1.73D-02 at cycle   3 NSaved=   3.
 NSaved= 3 IEnMin= 3 EnMin= -941.925223310782     IErMin= 2 ErrMin= 9.22D-03
 ErrMax= 1.73D-02  0.00D+00 EMaxC= 1.00D-01 BMatC= 3.12D-02 BMatP= 1.77D-02
 IDIUse=2 WtCom= 0.00D+00 WtEn= 1.00D+00
 Coeff-En:   0.000D+00 0.439D+00 0.561D+00
 Coeff:      0.000D+00 0.439D+00 0.561D+00
 Gap=     0.008 Goal=   None    Shift=    0.000
 DSYEVD-2 returned Info=         487 IAlg= 4 N=   243 NDim=   243 NE2=      551413 trying  DSYEV.
 RMSDP=1.10D-02 MaxDP=4.04D-01 DE=-1.15D-02 OVMax= 0.00D+00

 Cycle   4  Pass 1  IDiag  1:
 RMSU=  5.78D-03    CP:  9.88D-01  3.00D+00 -5.31D-01
 E= -941.408682939224     Delta-E=        0.516540371557 Rises=F Damp=F
 DIIS: error= 4.81D-02 at cycle   4 NSaved=   4.
 NSaved= 4 IEnMin= 3 EnMin= -941.925223310782     IErMin= 2 ErrMin= 9.22D-03
 ErrMax= 4.81D-02  0.00D+00 EMaxC= 1.00D-01 BMatC= 2.23D-01 BMatP= 1.77D-02
 IDIUse=2 WtCom= 0.00D+00 WtEn= 1.00D+00
 EnCoef did   100 forward-backward iterations
 Coeff-En:   0.213D+00 0.166D-01 0.605D+00 0.165D+00
 Coeff:      0.213D+00 0.166D-01 0.605D+00 0.165D+00
 Gap=    -0.004 Goal=   None    Shift=    0.000
 DSYEVD-2 returned Info=         487 IAlg= 4 N=   243 NDim=   243 NE2=      551413 trying  DSYEV.
 RMSDP=9.74D-03 MaxDP=2.47D-01 DE= 5.17D-01 OVMax= 0.00D+00

 Cycle   5  Pass 1  IDiag  1:
 RMSU=  2.23D-03    CP:  1.01D+00  1.03D+00  4.27D-01  1.13D-02
 E= -941.983595543235     Delta-E=       -0.574912604011 Rises=F Damp=F
 DIIS: error= 7.99D-03 at cycle   5 NSaved=   5.
 NSaved= 5 IEnMin= 5 EnMin= -941.983595543235     IErMin= 5 ErrMin= 7.99D-03
 ErrMax= 7.99D-03  0.00D+00 EMaxC= 1.00D-01 BMatC= 5.58D-03 BMatP= 1.77D-02
 IDIUse=3 WtCom= 9.20D-01 WtEn= 7.99D-02
 Coeff-Com: -0.232D+00 0.519D+00 0.282D+00-0.733D-02 0.439D+00
 Coeff-En:   0.000D+00 0.000D+00 0.186D+00 0.000D+00 0.814D+00
 Coeff:     -0.214D+00 0.478D+00 0.274D+00-0.675D-02 0.469D+00
 Gap=     0.007 Goal=   None    Shift=    0.000
 RMSDP=1.15D-03 MaxDP=9.06D-02 DE=-5.75D-01 OVMax= 0.00D+00

 Cycle   6  Pass 1  IDiag  1:
 RMSU=  4.06D-04    CP:  1.01D+00  8.33D-01  5.51D-01  8.00D-03  6.02D-01
 E= -941.995437812177     Delta-E=       -0.011842268941 Rises=F Damp=F
 DIIS: error= 1.66D-03 at cycle   6 NSaved=   6.
 NSaved= 6 IEnMin= 6 EnMin= -941.995437812177     IErMin= 6 ErrMin= 1.66D-03
 ErrMax= 1.66D-03  0.00D+00 EMaxC= 1.00D-01 BMatC= 3.78D-04 BMatP= 5.58D-03
 IDIUse=3 WtCom= 9.83D-01 WtEn= 1.66D-02
 Coeff-Com: -0.120D+00 0.192D+00 0.472D-01-0.480D-02 0.187D+00 0.698D+00
 Coeff-En:   0.000D+00 0.000D+00 0.000D+00 0.000D+00 0.885D-01 0.912D+00
 Coeff:     -0.118D+00 0.189D+00 0.465D-01-0.472D-02 0.186D+00 0.702D+00
 Gap=     0.006 Goal=   None    Shift=    0.000
 RMSDP=2.30D-04 MaxDP=6.36D-03 DE=-1.18D-02 OVMax= 0.00D+00

 Cycle   7  Pass 1  IDiag  1:
 RMSU=  1.27D-04    CP:  1.01D+00  8.85D-01  5.38D-01  3.27D-03  6.56D-01
                    CP:  7.44D-01
 E= -941.996285337652     Delta-E=       -0.000847525475 Rises=F Damp=F
 -------------------------------------------------------------------------
 Computing the density matrix at cycle:                        7
 -------------------------------------------------------------------------
 EMin=   -168.5679561980265     
 EMax=    168.5679561980265     
 --------------
 Charge Control
 --------------
 Searching energy boundaries [EMin, EMax] such that
 Total Integrated Spectral Weight (TISW)= 486
 EMin=  -168.56796  EMax=   168.56796  TISW= 485.99999
 --------------------------------------------------
 MULLER method
 Integration of P has needed a max no. of loops  64
 Integration of P has needed a max no. of loops  64
 Integration of P has needed a max no. of loops  64
 Integration of P has needed a max no. of loops 128
 Integration of P has needed a max no. of loops  16
 Integration of P has needed a max no. of loops  16
 Integration of P has needed a max no. of loops  16
 Integration of P has needed a max no. of loops  16
 -----------------------------------------------
 Fermi energy=  -8.15711  +/-  0.00005
 
 Number of alpha electrons:  148.50000
 Number of beta electrons:   148.50000
 Total number of electrons:   297.00000
 -----------------------------------------------
 DIIS: error= 5.06D-04 at cycle   7 NSaved=   7.
 NSaved= 7 IEnMin= 7 EnMin= -941.996285337652     IErMin= 7 ErrMin= 5.06D-04
 ErrMax= 5.06D-04  0.00D+00 EMaxC= 1.00D-01 BMatC= 1.95D-05 BMatP= 3.78D-04
 IDIUse=3 WtCom= 9.95D-01 WtEn= 5.06D-03
 Coeff-Com: -0.668D-01 0.102D+00 0.118D-01-0.182D-02 0.944D-01 0.442D+00
 Coeff-Com:  0.419D+00
 Coeff-En:   0.000D+00 0.000D+00 0.000D+00 0.000D+00 0.000D+00 0.000D+00
 Coeff-En:   0.100D+01
 Coeff:     -0.665D-01 0.101D+00 0.117D-01-0.181D-02 0.939D-01 0.439D+00
 Coeff:      0.422D+00
 RMSDP=2.81D-04 MaxDP=7.47D-03 DE=-8.48D-04 OVMax= 0.00D+00

 Cycle   8  Pass 1  IDiag  1:
 E= -941.964240110880     Delta-E=        0.032045226772 Rises=F Damp=F
 -------------------------------------------------------------------------
 Computing the density matrix at cycle:                        8
 -------------------------------------------------------------------------
 EMin=   -168.6786276133967     
 EMax=    168.6786276133967     
 MULLER method
 Integration of P has needed a max no. of loops  16
 Integration of P has needed a max no. of loops  16
 Integration of P has needed a max no. of loops  16
 Integration of P has needed a max no. of loops  16
 Integration of P has needed a max no. of loops  16
 -----------------------------------------------
 Fermi energy=  -8.14018  +/-  0.00000
 
 Number of alpha electrons:  148.50000
 Number of beta electrons:   148.50000
 Total number of electrons:   297.00000
 -----------------------------------------------
 RMSDP=2.72D-04 MaxDP=7.24D-03 DE= 3.20D-02 OVMax= 0.00D+00

 Cycle   9  Pass 1  IDiag  1:
 E= -941.933095117559     Delta-E=        0.031144993322 Rises=F Damp=F
 -------------------------------------------------------------------------
 Computing the density matrix at cycle:                        9
 -------------------------------------------------------------------------
 EMin=   -168.7548201687009     
 EMax=    168.7548201687009     
 MULLER method
 Integration of P has needed a max no. of loops  16
 Integration of P has needed a max no. of loops  16
 Integration of P has needed a max no. of loops  16
 Integration of P has needed a max no. of loops  16
